TITLE = "Nozzle Field Local Sensitivity Data"
variables="x""area""rho_prime""u_prime""p_prime"
zone T="n=0"
I= 256
DATAPACKING=POINT
-9.960938e-01 9.999699e-01 0.000000e+00 0.000000e+00 0.000000e+00
-9.882813e-01 9.997290e-01 0.000000e+00 0.000000e+00 0.000000e+00
-9.804688e-01 9.992472e-01 0.000000e+00 0.000000e+00 0.000000e+00
-9.726563e-01 9.985250e-01 0.000000e+00 0.000000e+00 0.000000e+00
-9.648438e-01 9.975628e-01 0.000000e+00 0.000000e+00 0.000000e+00
-9.570313e-01 9.963611e-01 0.000000e+00 0.000000e+00 0.000000e+00
-9.492188e-01 9.949206e-01 0.000000e+00 0.000000e+00 0.000000e+00
-9.414063e-01 9.932422e-01 0.000000e+00 0.000000e+00 0.000000e+00
-9.335938e-01 9.913269e-01 0.000000e+00 0.000000e+00 0.000000e+00
-9.257813e-01 9.891760e-01 0.000000e+00 0.000000e+00 0.000000e+00
-9.179688e-01 9.867906e-01 0.000000e+00 0.000000e+00 0.000000e+00
-9.101563e-01 9.841722e-01 0.000000e+00 0.000000e+00 0.000000e+00
-9.023438e-01 9.813224e-01 0.000000e+00 0.000000e+00 0.000000e+00
-8.945313e-01 9.782429e-01 0.000000e+00 0.000000e+00 0.000000e+00
-8.867188e-01 9.749356e-01 0.000000e+00 0.000000e+00 0.000000e+00
-8.789063e-01 9.714024e-01 0.000000e+00 0.000000e+00 0.000000e+00
-8.710938e-01 9.676455e-01 0.000000e+00 0.000000e+00 0.000000e+00
-8.632813e-01 9.636672e-01 0.000000e+00 0.000000e+00 0.000000e+00
-8.554688e-01 9.594698e-01 0.000000e+00 0.000000e+00 0.000000e+00
-8.476563e-01 9.550558e-01 0.000000e+00 0.000000e+00 0.000000e+00
-8.398438e-01 9.504280e-01 0.000000e+00 0.000000e+00 0.000000e+00
-8.320313e-01 9.455891e-01 0.000000e+00 0.000000e+00 0.000000e+00
-8.242188e-01 9.405421e-01 0.000000e+00 0.000000e+00 0.000000e+00
-8.164063e-01 9.352899e-01 0.000000e+00 0.000000e+00 0.000000e+00
-8.085938e-01 9.298357e-01 0.000000e+00 0.000000e+00 0.000000e+00
-8.007813e-01 9.241829e-01 0.000000e+00 0.000000e+00 0.000000e+00
-7.929688e-01 9.183348e-01 0.000000e+00 0.000000e+00 0.000000e+00
-7.851563e-01 9.122949e-01 0.000000e+00 0.000000e+00 0.000000e+00
-7.773438e-01 9.060669e-01 0.000000e+00 0.000000e+00 0.000000e+00
-7.695313e-01 8.996546e-01 0.000000e+00 0.000000e+00 0.000000e+00
-7.617188e-01 8.930617e-01 0.000000e+00 0.000000e+00 0.000000e+00
-7.539063e-01 8.862923e-01 0.000000e+00 0.000000e+00 0.000000e+00
-7.460938e-01 8.793505e-01 0.000000e+00 0.000000e+00 0.000000e+00
-7.382813e-01 8.722404e-01 0.000000e+00 0.000000e+00 0.000000e+00
-7.304688e-01 8.649663e-01 0.000000e+00 0.000000e+00 0.000000e+00
-7.226563e-01 8.575326e-01 0.000000e+00 0.000000e+00 0.000000e+00
-7.148438e-01 8.499438e-01 0.000000e+00 0.000000e+00 0.000000e+00
-7.070313e-01 8.422044e-01 0.000000e+00 0.000000e+00 0.000000e+00
-6.992188e-01 8.343191e-01 0.000000e+00 0.000000e+00 0.000000e+00
-6.914063e-01 8.262927e-01 0.000000e+00 0.000000e+00 0.000000e+00
-6.835938e-01 8.181300e-01 0.000000e+00 0.000000e+00 0.000000e+00
-6.757813e-01 8.098359e-01 0.000000e+00 0.000000e+00 0.000000e+00
-6.679688e-01 8.014154e-01 0.000000e+00 0.000000e+00 0.000000e+00
-6.601563e-01 7.928735e-01 0.000000e+00 0.000000e+00 0.000000e+00
-6.523438e-01 7.842155e-01 0.000000e+00 0.000000e+00 0.000000e+00
-6.445313e-01 7.754465e-01 0.000000e+00 0.000000e+00 0.000000e+00
-6.367188e-01 7.665718e-01 0.000000e+00 0.000000e+00 0.000000e+00
-6.289063e-01 7.575968e-01 0.000000e+00 0.000000e+00 0.000000e+00
-6.210938e-01 7.485269e-01 0.000000e+00 0.000000e+00 0.000000e+00
-6.132813e-01 7.393675e-01 0.000000e+00 0.000000e+00 0.000000e+00
-6.054688e-01 7.301241e-01 0.000000e+00 0.000000e+00 0.000000e+00
-5.976563e-01 7.208024e-01 0.000000e+00 0.000000e+00 0.000000e+00
-5.898438e-01 7.114079e-01 0.000000e+00 0.000000e+00 0.000000e+00
-5.820313e-01 7.019463e-01 0.000000e+00 0.000000e+00 0.000000e+00
-5.742188e-01 6.924232e-01 0.000000e+00 0.000000e+00 0.000000e+00
-5.664063e-01 6.828446e-01 0.000000e+00 0.000000e+00 0.000000e+00
-5.585938e-01 6.732160e-01 0.000000e+00 0.000000e+00 0.000000e+00
-5.507813e-01 6.635433e-01 0.000000e+00 0.000000e+00 0.000000e+00
-5.429688e-01 6.538323e-01 0.000000e+00 0.000000e+00 0.000000e+00
-5.351563e-01 6.440889e-01 0.000000e+00 0.000000e+00 0.000000e+00
-5.273438e-01 6.343189e-01 0.000000e+00 0.000000e+00 0.000000e+00
-5.195313e-01 6.245283e-01 0.000000e+00 0.000000e+00 0.000000e+00
-5.117188e-01 6.147229e-01 0.000000e+00 0.000000e+00 0.000000e+00
-5.039063e-01 6.049086e-01 0.000000e+00 0.000000e+00 0.000000e+00
-4.960938e-01 5.950914e-01 0.000000e+00 0.000000e+00 0.000000e+00
-4.882813e-01 5.852771e-01 0.000000e+00 0.000000e+00 0.000000e+00
-4.804688e-01 5.754717e-01 0.000000e+00 0.000000e+00 0.000000e+00
-4.726563e-01 5.656811e-01 0.000000e+00 0.000000e+00 0.000000e+00
-4.648438e-01 5.559111e-01 0.000000e+00 0.000000e+00 0.000000e+00
-4.570313e-01 5.461677e-01 0.000000e+00 0.000000e+00 0.000000e+00
-4.492188e-01 5.364567e-01 0.000000e+00 0.000000e+00 0.000000e+00
-4.414063e-01 5.267840e-01 0.000000e+00 0.000000e+00 0.000000e+00
-4.335938e-01 5.171554e-01 0.000000e+00 0.000000e+00 0.000000e+00
-4.257813e-01 5.075768e-01 0.000000e+00 0.000000e+00 0.000000e+00
-4.179688e-01 4.980537e-01 0.000000e+00 0.000000e+00 0.000000e+00
-4.101563e-01 4.885921e-01 0.000000e+00 0.000000e+00 0.000000e+00
-4.023438e-01 4.791976e-01 0.000000e+00 0.000000e+00 0.000000e+00
-3.945313e-01 4.698759e-01 0.000000e+00 0.000000e+00 0.000000e+00
-3.867188e-01 4.606325e-01 0.000000e+00 0.000000e+00 0.000000e+00
-3.789063e-01 4.514731e-01 0.000000e+00 0.000000e+00 0.000000e+00
-3.710938e-01 4.424032e-01 0.000000e+00 0.000000e+00 0.000000e+00
-3.632813e-01 4.334282e-01 0.000000e+00 0.000000e+00 0.000000e+00
-3.554688e-01 4.245535e-01 0.000000e+00 0.000000e+00 0.000000e+00
-3.476563e-01 4.157845e-01 0.000000e+00 0.000000e+00 0.000000e+00
-3.398438e-01 4.071265e-01 0.000000e+00 0.000000e+00 0.000000e+00
-3.320313e-01 3.985846e-01 0.000000e+00 0.000000e+00 0.000000e+00
-3.242188e-01 3.901641e-01 0.000000e+00 0.000000e+00 0.000000e+00
-3.164063e-01 3.818700e-01 0.000000e+00 0.000000e+00 0.000000e+00
-3.085938e-01 3.737073e-01 0.000000e+00 0.000000e+00 0.000000e+00
-3.007813e-01 3.656809e-01 0.000000e+00 0.000000e+00 0.000000e+00
-2.929688e-01 3.577956e-01 0.000000e+00 0.000000e+00 0.000000e+00
-2.851563e-01 3.500562e-01 0.000000e+00 0.000000e+00 0.000000e+00
-2.773438e-01 3.424674e-01 0.000000e+00 0.000000e+00 0.000000e+00
-2.695313e-01 3.350337e-01 0.000000e+00 0.000000e+00 0.000000e+00
-2.617188e-01 3.277596e-01 0.000000e+00 0.000000e+00 0.000000e+00
-2.539063e-01 3.206495e-01 0.000000e+00 0.000000e+00 0.000000e+00
-2.460938e-01 3.137077e-01 0.000000e+00 0.000000e+00 0.000000e+00
-2.382813e-01 3.069383e-01 0.000000e+00 0.000000e+00 0.000000e+00
-2.304688e-01 3.003454e-01 0.000000e+00 0.000000e+00 0.000000e+00
-2.226563e-01 2.939331e-01 0.000000e+00 0.000000e+00 0.000000e+00
-2.148438e-01 2.877051e-01 0.000000e+00 0.000000e+00 0.000000e+00
-2.070313e-01 2.816652e-01 0.000000e+00 0.000000e+00 0.000000e+00
-1.992188e-01 2.758171e-01 0.000000e+00 0.000000e+00 0.000000e+00
-1.914063e-01 2.701643e-01 0.000000e+00 0.000000e+00 0.000000e+00
-1.835938e-01 2.647101e-01 0.000000e+00 0.000000e+00 0.000000e+00
-1.757813e-01 2.594579e-01 0.000000e+00 0.000000e+00 0.000000e+00
-1.679688e-01 2.544109e-01 0.000000e+00 0.000000e+00 0.000000e+00
-1.601563e-01 2.495720e-01 0.000000e+00 0.000000e+00 0.000000e+00
-1.523438e-01 2.449442e-01 0.000000e+00 0.000000e+00 0.000000e+00
-1.445313e-01 2.405302e-01 0.000000e+00 0.000000e+00 0.000000e+00
-1.367188e-01 2.363328e-01 0.000000e+00 0.000000e+00 0.000000e+00
-1.289063e-01 2.323545e-01 0.000000e+00 0.000000e+00 0.000000e+00
-1.210938e-01 2.285976e-01 0.000000e+00 0.000000e+00 0.000000e+00
-1.132813e-01 2.250644e-01 0.000000e+00 0.000000e+00 0.000000e+00
-1.054688e-01 2.217571e-01 0.000000e+00 0.000000e+00 0.000000e+00
-9.765625e-02 2.186776e-01 0.000000e+00 0.000000e+00 0.000000e+00
-8.984375e-02 2.158278e-01 0.000000e+00 0.000000e+00 0.000000e+00
-8.203125e-02 2.132094e-01 0.000000e+00 0.000000e+00 0.000000e+00
-7.421875e-02 2.108240e-01 0.000000e+00 0.000000e+00 0.000000e+00
-6.640625e-02 2.086731e-01 0.000000e+00 0.000000e+00 0.000000e+00
-5.859375e-02 2.067578e-01 0.000000e+00 0.000000e+00 0.000000e+00
-5.078125e-02 2.050794e-01 0.000000e+00 0.000000e+00 0.000000e+00
-4.296875e-02 2.036389e-01 0.000000e+00 0.000000e+00 0.000000e+00
-3.515625e-02 2.024372e-01 0.000000e+00 0.000000e+00 0.000000e+00
-2.734375e-02 2.014750e-01 0.000000e+00 0.000000e+00 0.000000e+00
-1.953125e-02 2.007528e-01 0.000000e+00 0.000000e+00 0.000000e+00
-1.171875e-02 2.002710e-01 0.000000e+00 0.000000e+00 0.000000e+00
-3.906250e-03 2.000301e-01 0.000000e+00 0.000000e+00 0.000000e+00
3.906250e-03 2.000301e-01 0.000000e+00 0.000000e+00 0.000000e+00
1.171875e-02 2.002710e-01 0.000000e+00 0.000000e+00 0.000000e+00
1.953125e-02 2.007528e-01 0.000000e+00 0.000000e+00 0.000000e+00
2.734375e-02 2.014750e-01 0.000000e+00 0.000000e+00 0.000000e+00
3.515625e-02 2.024372e-01 0.000000e+00 0.000000e+00 0.000000e+00
4.296875e-02 2.036389e-01 0.000000e+00 0.000000e+00 0.000000e+00
5.078125e-02 2.050794e-01 0.000000e+00 0.000000e+00 0.000000e+00
5.859375e-02 2.067578e-01 0.000000e+00 0.000000e+00 0.000000e+00
6.640625e-02 2.086731e-01 0.000000e+00 0.000000e+00 0.000000e+00
7.421875e-02 2.108240e-01 0.000000e+00 0.000000e+00 0.000000e+00
8.203125e-02 2.132094e-01 0.000000e+00 0.000000e+00 0.000000e+00
8.984375e-02 2.158278e-01 0.000000e+00 0.000000e+00 0.000000e+00
9.765625e-02 2.186776e-01 0.000000e+00 0.000000e+00 0.000000e+00
1.054688e-01 2.217571e-01 0.000000e+00 0.000000e+00 0.000000e+00
1.132813e-01 2.250644e-01 0.000000e+00 0.000000e+00 0.000000e+00
1.210938e-01 2.285976e-01 0.000000e+00 0.000000e+00 0.000000e+00
1.289063e-01 2.323545e-01 0.000000e+00 0.000000e+00 0.000000e+00
1.367188e-01 2.363328e-01 0.000000e+00 0.000000e+00 0.000000e+00
1.445313e-01 2.405302e-01 0.000000e+00 0.000000e+00 0.000000e+00
1.523438e-01 2.449442e-01 0.000000e+00 0.000000e+00 0.000000e+00
1.601563e-01 2.495720e-01 0.000000e+00 0.000000e+00 0.000000e+00
1.679688e-01 2.544109e-01 0.000000e+00 0.000000e+00 0.000000e+00
1.757813e-01 2.594579e-01 0.000000e+00 0.000000e+00 0.000000e+00
1.835938e-01 2.647101e-01 0.000000e+00 0.000000e+00 0.000000e+00
1.914063e-01 2.701643e-01 0.000000e+00 0.000000e+00 0.000000e+00
1.992188e-01 2.758171e-01 0.000000e+00 0.000000e+00 0.000000e+00
2.070313e-01 2.816652e-01 0.000000e+00 0.000000e+00 0.000000e+00
2.148438e-01 2.877051e-01 0.000000e+00 0.000000e+00 0.000000e+00
2.226563e-01 2.939331e-01 0.000000e+00 0.000000e+00 0.000000e+00
2.304688e-01 3.003454e-01 0.000000e+00 0.000000e+00 0.000000e+00
2.382813e-01 3.069383e-01 0.000000e+00 0.000000e+00 0.000000e+00
2.460938e-01 3.137077e-01 0.000000e+00 0.000000e+00 0.000000e+00
2.539063e-01 3.206495e-01 0.000000e+00 0.000000e+00 0.000000e+00
2.617188e-01 3.277596e-01 0.000000e+00 0.000000e+00 0.000000e+00
2.695313e-01 3.350337e-01 0.000000e+00 0.000000e+00 0.000000e+00
2.773438e-01 3.424674e-01 0.000000e+00 0.000000e+00 0.000000e+00
2.851563e-01 3.500562e-01 0.000000e+00 0.000000e+00 0.000000e+00
2.929688e-01 3.577956e-01 0.000000e+00 0.000000e+00 0.000000e+00
3.007813e-01 3.656809e-01 0.000000e+00 0.000000e+00 0.000000e+00
3.085938e-01 3.737073e-01 0.000000e+00 0.000000e+00 0.000000e+00
3.164063e-01 3.818700e-01 0.000000e+00 0.000000e+00 0.000000e+00
3.242188e-01 3.901641e-01 0.000000e+00 0.000000e+00 0.000000e+00
3.320313e-01 3.985846e-01 0.000000e+00 0.000000e+00 0.000000e+00
3.398438e-01 4.071265e-01 0.000000e+00 0.000000e+00 0.000000e+00
3.476563e-01 4.157845e-01 0.000000e+00 0.000000e+00 0.000000e+00
3.554688e-01 4.245535e-01 0.000000e+00 0.000000e+00 0.000000e+00
3.632813e-01 4.334282e-01 0.000000e+00 0.000000e+00 0.000000e+00
3.710938e-01 4.424032e-01 0.000000e+00 0.000000e+00 0.000000e+00
3.789063e-01 4.514731e-01 0.000000e+00 0.000000e+00 0.000000e+00
3.867188e-01 4.606325e-01 0.000000e+00 0.000000e+00 0.000000e+00
3.945313e-01 4.698759e-01 0.000000e+00 0.000000e+00 0.000000e+00
4.023438e-01 4.791976e-01 0.000000e+00 0.000000e+00 0.000000e+00
4.101563e-01 4.885921e-01 0.000000e+00 0.000000e+00 0.000000e+00
4.179688e-01 4.980537e-01 0.000000e+00 0.000000e+00 0.000000e+00
4.257813e-01 5.075768e-01 0.000000e+00 0.000000e+00 0.000000e+00
4.335938e-01 5.171554e-01 0.000000e+00 0.000000e+00 0.000000e+00
4.414063e-01 5.267840e-01 0.000000e+00 0.000000e+00 0.000000e+00
4.492188e-01 5.364567e-01 0.000000e+00 0.000000e+00 0.000000e+00
4.570313e-01 5.461677e-01 0.000000e+00 0.000000e+00 0.000000e+00
4.648438e-01 5.559111e-01 0.000000e+00 0.000000e+00 0.000000e+00
4.726563e-01 5.656811e-01 0.000000e+00 0.000000e+00 0.000000e+00
4.804688e-01 5.754717e-01 0.000000e+00 0.000000e+00 0.000000e+00
4.882813e-01 5.852771e-01 0.000000e+00 0.000000e+00 0.000000e+00
4.960938e-01 5.950914e-01 0.000000e+00 0.000000e+00 0.000000e+00
5.039063e-01 6.049086e-01 0.000000e+00 0.000000e+00 0.000000e+00
5.117188e-01 6.147229e-01 0.000000e+00 0.000000e+00 0.000000e+00
5.195313e-01 6.245283e-01 0.000000e+00 0.000000e+00 0.000000e+00
5.273438e-01 6.343189e-01 0.000000e+00 0.000000e+00 0.000000e+00
5.351563e-01 6.440889e-01 0.000000e+00 0.000000e+00 0.000000e+00
5.429688e-01 6.538323e-01 0.000000e+00 0.000000e+00 0.000000e+00
5.507813e-01 6.635433e-01 0.000000e+00 0.000000e+00 0.000000e+00
5.585938e-01 6.732160e-01 0.000000e+00 0.000000e+00 0.000000e+00
5.664063e-01 6.828446e-01 0.000000e+00 0.000000e+00 0.000000e+00
5.742188e-01 6.924232e-01 0.000000e+00 0.000000e+00 0.000000e+00
5.820313e-01 7.019463e-01 0.000000e+00 0.000000e+00 0.000000e+00
5.898438e-01 7.114079e-01 0.000000e+00 0.000000e+00 0.000000e+00
5.976563e-01 7.208024e-01 0.000000e+00 0.000000e+00 0.000000e+00
6.054688e-01 7.301241e-01 0.000000e+00 0.000000e+00 0.000000e+00
6.132813e-01 7.393675e-01 0.000000e+00 0.000000e+00 0.000000e+00
6.210938e-01 7.485269e-01 0.000000e+00 0.000000e+00 0.000000e+00
6.289063e-01 7.575968e-01 0.000000e+00 0.000000e+00 0.000000e+00
6.367188e-01 7.665718e-01 0.000000e+00 0.000000e+00 0.000000e+00
6.445313e-01 7.754465e-01 0.000000e+00 0.000000e+00 0.000000e+00
6.523438e-01 7.842155e-01 0.000000e+00 0.000000e+00 0.000000e+00
6.601563e-01 7.928735e-01 0.000000e+00 0.000000e+00 0.000000e+00
6.679688e-01 8.014154e-01 0.000000e+00 0.000000e+00 0.000000e+00
6.757813e-01 8.098359e-01 0.000000e+00 0.000000e+00 0.000000e+00
6.835938e-01 8.181300e-01 0.000000e+00 0.000000e+00 0.000000e+00
6.914063e-01 8.262927e-01 0.000000e+00 0.000000e+00 0.000000e+00
6.992188e-01 8.343191e-01 0.000000e+00 0.000000e+00 0.000000e+00
7.070313e-01 8.422044e-01 0.000000e+00 0.000000e+00 0.000000e+00
7.148438e-01 8.499438e-01 0.000000e+00 0.000000e+00 0.000000e+00
7.226563e-01 8.575326e-01 0.000000e+00 0.000000e+00 0.000000e+00
7.304688e-01 8.649663e-01 0.000000e+00 0.000000e+00 0.000000e+00
7.382813e-01 8.722404e-01 0.000000e+00 0.000000e+00 0.000000e+00
7.460938e-01 8.793505e-01 0.000000e+00 0.000000e+00 0.000000e+00
7.539063e-01 8.862923e-01 0.000000e+00 0.000000e+00 0.000000e+00
7.617188e-01 8.930617e-01 0.000000e+00 0.000000e+00 0.000000e+00
7.695313e-01 8.996546e-01 0.000000e+00 0.000000e+00 0.000000e+00
7.773438e-01 9.060669e-01 0.000000e+00 0.000000e+00 0.000000e+00
7.851563e-01 9.122949e-01 0.000000e+00 0.000000e+00 0.000000e+00
7.929688e-01 9.183348e-01 0.000000e+00 0.000000e+00 0.000000e+00
8.007813e-01 9.241829e-01 0.000000e+00 0.000000e+00 0.000000e+00
8.085938e-01 9.298357e-01 0.000000e+00 0.000000e+00 0.000000e+00
8.164063e-01 9.352899e-01 0.000000e+00 0.000000e+00 0.000000e+00
8.242188e-01 9.405421e-01 0.000000e+00 0.000000e+00 0.000000e+00
8.320313e-01 9.455891e-01 0.000000e+00 0.000000e+00 0.000000e+00
8.398438e-01 9.504280e-01 0.000000e+00 0.000000e+00 0.000000e+00
8.476563e-01 9.550558e-01 0.000000e+00 0.000000e+00 0.000000e+00
8.554688e-01 9.594698e-01 0.000000e+00 0.000000e+00 0.000000e+00
8.632813e-01 9.636672e-01 0.000000e+00 0.000000e+00 0.000000e+00
8.710938e-01 9.676455e-01 0.000000e+00 0.000000e+00 0.000000e+00
8.789063e-01 9.714024e-01 0.000000e+00 0.000000e+00 0.000000e+00
8.867188e-01 9.749356e-01 0.000000e+00 0.000000e+00 0.000000e+00
8.945313e-01 9.782429e-01 0.000000e+00 0.000000e+00 0.000000e+00
9.023438e-01 9.813224e-01 0.000000e+00 0.000000e+00 0.000000e+00
9.101563e-01 9.841722e-01 0.000000e+00 0.000000e+00 0.000000e+00
9.179688e-01 9.867906e-01 0.000000e+00 0.000000e+00 0.000000e+00
9.257813e-01 9.891760e-01 0.000000e+00 0.000000e+00 0.000000e+00
9.335938e-01 9.913269e-01 0.000000e+00 0.000000e+00 0.000000e+00
9.414063e-01 9.932422e-01 0.000000e+00 0.000000e+00 0.000000e+00
9.492188e-01 9.949206e-01 0.000000e+00 0.000000e+00 0.000000e+00
9.570313e-01 9.963611e-01 0.000000e+00 0.000000e+00 0.000000e+00
9.648438e-01 9.975628e-01 0.000000e+00 0.000000e+00 0.000000e+00
9.726563e-01 9.985250e-01 0.000000e+00 0.000000e+00 0.000000e+00
9.804688e-01 9.992472e-01 0.000000e+00 0.000000e+00 0.000000e+00
9.882813e-01 9.997290e-01 0.000000e+00 0.000000e+00 0.000000e+00
9.960938e-01 9.999699e-01 0.000000e+00 0.000000e+00 0.000000e+00
zone T="n=36"
I= 256
DATAPACKING=POINT
-9.960938e-01 9.999699e-01 4.745147e-02 -1.158592e+02 1.141281e+04
-9.882813e-01 9.997290e-01 4.741547e-02 -1.158768e+02 1.140838e+04
-9.804688e-01 9.992472e-01 4.739965e-02 -1.159164e+02 1.140880e+04
-9.726563e-01 9.985250e-01 4.740447e-02 -1.159782e+02 1.141416e+04
-9.648438e-01 9.975628e-01 4.742999e-02 -1.160621e+02 1.142449e+04
-9.570313e-01 9.963611e-01 4.747630e-02 -1.161683e+02 1.143981e+04
-9.492188e-01 9.949206e-01 4.754354e-02 -1.162967e+02 1.146016e+04
-9.414063e-01 9.932422e-01 4.763186e-02 -1.164474e+02 1.148558e+04
-9.335938e-01 9.913269e-01 4.774145e-02 -1.166205e+02 1.151610e+04
-9.257813e-01 9.891760e-01 4.787253e-02 -1.168160e+02 1.155178e+04
-9.179688e-01 9.867906e-01 4.802533e-02 -1.170342e+02 1.159268e+04
-9.101563e-01 9.841722e-01 4.820013e-02 -1.172750e+02 1.163887e+04
-9.023438e-01 9.813224e-01 4.839724e-02 -1.175385e+02 1.169042e+04
-8.945313e-01 9.782429e-01 4.861700e-02 -1.178250e+02 1.174742e+04
-8.867188e-01 9.749356e-01 4.885977e-02 -1.181345e+02 1.180994e+04
-8.789063e-01 9.714024e-01 4.912595e-02 -1.184672e+02 1.187809e+04
-8.710938e-01 9.676455e-01 4.941598e-02 -1.188231e+02 1.195198e+04
-8.632813e-01 9.636672e-01 4.973033e-02 -1.192026e+02 1.203172e+04
-8.554688e-01 9.594698e-01 5.006951e-02 -1.196058e+02 1.211742e+04
-8.476563e-01 9.550558e-01 5.043407e-02 -1.200328e+02 1.220923e+04
-8.398438e-01 9.504280e-01 5.082458e-02 -1.204838e+02 1.230727e+04
-8.320313e-01 9.455891e-01 5.124166e-02 -1.209591e+02 1.241171e+04
-8.242188e-01 9.405421e-01 5.168599e-02 -1.214588e+02 1.252269e+04
-8.164063e-01 9.352899e-01 5.215825e-02 -1.219831e+02 1.264038e+04
-8.085938e-01 9.298357e-01 5.265921e-02 -1.225324e+02 1.276498e+04
-8.007813e-01 9.241829e-01 5.318965e-02 -1.231068e+02 1.289666e+04
-7.929688e-01 9.183348e-01 5.375042e-02 -1.237066e+02 1.303562e+04
-7.851563e-01 9.122949e-01 5.434241e-02 -1.243319e+02 1.318209e+04
-7.773438e-01 9.060669e-01 5.496654e-02 -1.249832e+02 1.333628e+04
-7.695313e-01 8.996546e-01 5.562383e-02 -1.256605e+02 1.349843e+04
-7.617188e-01 8.930617e-01 5.631532e-02 -1.263643e+02 1.366879e+04
-7.539063e-01 8.862923e-01 5.704210e-02 -1.270948e+02 1.384762e+04
-7.460938e-01 8.793505e-01 5.780535e-02 -1.278522e+02 1.403521e+04
-7.382813e-01 8.722404e-01 5.860628e-02 -1.286368e+02 1.423183e+04
-7.304688e-01 8.649663e-01 5.944619e-02 -1.294489e+02 1.443780e+04
-7.226563e-01 8.575326e-01 6.032643e-02 -1.302888e+02 1.465345e+04
-7.148438e-01 8.499438e-01 6.124843e-02 -1.311568e+02 1.487910e+04
-7.070313e-01 8.422044e-01 6.221367e-02 -1.320532e+02 1.511511e+04
-6.992188e-01 8.343191e-01 6.322373e-02 -1.329781e+02 1.536186e+04
-6.914063e-01 8.262927e-01 6.428026e-02 -1.339320e+02 1.561973e+04
-6.835938e-01 8.181300e-01 6.538498e-02 -1.349150e+02 1.588913e+04
-6.757813e-01 8.098359e-01 6.653971e-02 -1.359275e+02 1.617049e+04
-6.679688e-01 8.014154e-01 6.774633e-02 -1.369696e+02 1.646426e+04
-6.601563e-01 7.928735e-01 6.900683e-02 -1.380417e+02 1.677091e+04
-6.523438e-01 7.842155e-01 7.032329e-02 -1.391439e+02 1.709091e+04
-6.445313e-01 7.754465e-01 7.169788e-02 -1.402764e+02 1.742480e+04
-6.367188e-01 7.665718e-01 7.313287e-02 -1.414395e+02 1.777309e+04
-6.289063e-01 7.575968e-01 7.463064e-02 -1.426332e+02 1.813634e+04
-6.210938e-01 7.485269e-01 7.619365e-02 -1.438578e+02 1.851514e+04
-6.132813e-01 7.393675e-01 7.782449e-02 -1.451133e+02 1.891009e+04
-6.054688e-01 7.301241e-01 7.952584e-02 -1.463998e+02 1.932181e+04
-5.976563e-01 7.208024e-01 8.130051e-02 -1.477173e+02 1.975096e+04
-5.898438e-01 7.114079e-01 8.315141e-02 -1.490659e+02 2.019821e+04
-5.820313e-01 7.019463e-01 8.508157e-02 -1.504453e+02 2.066427e+04
-5.742188e-01 6.924232e-01 8.709412e-02 -1.518556e+02 2.114987e+04
-5.664063e-01 6.828446e-01 8.919233e-02 -1.532964e+02 2.165575e+04
-5.585938e-01 6.732160e-01 9.137957e-02 -1.547677e+02 2.218270e+04
-5.507813e-01 6.635433e-01 9.365933e-02 -1.562689e+02 2.273152e+04
-5.429688e-01 6.538323e-01 9.603519e-02 -1.577997e+02 2.330303e+04
-5.351563e-01 6.440889e-01 9.851087e-02 -1.593596e+02 2.389807e+04
-5.273438e-01 6.343189e-01 1.010902e-01 -1.609479e+02 2.451752e+04
-5.195313e-01 6.245283e-01 1.037770e-01 -1.625639e+02 2.516226e+04
-5.117188e-01 6.147229e-01 1.065754e-01 -1.642067e+02 2.583318e+04
-5.039063e-01 6.049086e-01 1.094894e-01 -1.658753e+02 2.653121e+04
-4.960938e-01 5.950914e-01 1.125231e-01 -1.675685e+02 2.725726e+04
-4.882813e-01 5.852771e-01 1.156807e-01 -1.692850e+02 2.801227e+04
-4.804688e-01 5.754717e-01 1.189665e-01 -1.710232e+02 2.879716e+04
-4.726563e-01 5.656811e-01 1.223846e-01 -1.727814e+02 2.961284e+04
-4.648438e-01 5.559111e-01 1.259394e-01 -1.745576e+02 3.046024e+04
-4.570313e-01 5.461677e-01 1.296349e-01 -1.763497e+02 3.134024e+04
-4.492188e-01 5.364567e-01 1.334752e-01 -1.781551e+02 3.225368e+04
-4.414063e-01 5.267840e-01 1.374643e-01 -1.799712e+02 3.320139e+04
-4.335938e-01 5.171554e-01 1.416060e-01 -1.817950e+02 3.418411e+04
-4.257813e-01 5.075768e-01 1.459037e-01 -1.836229e+02 3.520255e+04
-4.179688e-01 4.980537e-01 1.503609e-01 -1.854513e+02 3.625728e+04
-4.101563e-01 4.885921e-01 1.549802e-01 -1.872760e+02 3.734883e+04
-4.023438e-01 4.791976e-01 1.597643e-01 -1.890925e+02 3.847754e+04
-3.945313e-01 4.698759e-01 1.647148e-01 -1.908959e+02 3.964364e+04
-3.867188e-01 4.606325e-01 1.698332e-01 -1.926806e+02 4.084717e+04
-3.789063e-01 4.514731e-01 1.751197e-01 -1.944406e+02 4.208797e+04
-3.710938e-01 4.424032e-01 1.805741e-01 -1.961695e+02 4.336562e+04
-3.632813e-01 4.334282e-01 1.861946e-01 -1.978601e+02 4.467945e+04
-3.554688e-01 4.245535e-01 1.919788e-01 -1.995048e+02 4.602845e+04
-3.476563e-01 4.157845e-01 1.979223e-01 -2.010950e+02 4.741126e+04
-3.398438e-01 4.071265e-01 2.040194e-01 -2.026219e+02 4.882609e+04
-3.320313e-01 3.985846e-01 2.102626e-01 -2.040757e+02 5.027071e+04
-3.242188e-01 3.901641e-01 2.166423e-01 -2.054457e+02 5.174236e+04
-3.164063e-01 3.818700e-01 2.231465e-01 -2.067209e+02 5.323769e+04
-3.085938e-01 3.737073e-01 2.297606e-01 -2.078889e+02 5.475271e+04
-3.007813e-01 3.656809e-01 2.364671e-01 -2.089370e+02 5.628271e+04
-2.929688e-01 3.577956e-01 2.432455e-01 -2.098514e+02 5.782221e+04
-2.851563e-01 3.500562e-01 2.500716e-01 -2.106174e+02 5.936486e+04
-2.773438e-01 3.424674e-01 2.569172e-01 -2.112196e+02 6.090338e+04
-2.695313e-01 3.350337e-01 2.637501e-01 -2.116417e+02 6.242949e+04
-2.617188e-01 3.277596e-01 2.705336e-01 -2.118665e+02 6.393384e+04
-2.539063e-01 3.206495e-01 2.772259e-01 -2.118761e+02 6.540594e+04
-2.460938e-01 3.137077e-01 2.837802e-01 -2.116517e+02 6.683411e+04
-2.382813e-01 3.069383e-01 2.901441e-01 -2.111740e+02 6.820543e+04
-2.304688e-01 3.003454e-01 2.962595e-01 -2.104229e+02 6.950571e+04
-2.226563e-01 2.939331e-01 3.020625e-01 -2.093779e+02 7.071944e+04
-2.148438e-01 2.877051e-01 3.074830e-01 -2.080182e+02 7.182986e+04
-2.070313e-01 2.816652e-01 3.124451e-01 -2.063226e+02 7.281896e+04
-1.992188e-01 2.758171e-01 3.168665e-01 -2.042699e+02 7.366751e+04
-1.914063e-01 2.701643e-01 3.206597e-01 -2.018391e+02 7.435524e+04
-1.835938e-01 2.647101e-01 3.237313e-01 -1.990094e+02 7.486092e+04
-1.757813e-01 2.594579e-01 3.259836e-01 -1.957609e+02 7.516258e+04
-1.679688e-01 2.544109e-01 3.273145e-01 -1.920743e+02 7.523773e+04
-1.601563e-01 2.495720e-01 3.276191e-01 -1.879318e+02 7.506369e+04
-1.523438e-01 2.449442e-01 3.267903e-01 -1.833170e+02 7.461791e+04
-1.445313e-01 2.405302e-01 3.247209e-01 -1.782155e+02 7.387836e+04
-1.367188e-01 2.363328e-01 3.213048e-01 -1.726150e+02 7.282402e+04
-1.289063e-01 2.323545e-01 3.164391e-01 -1.665061e+02 7.143536e+04
-1.210938e-01 2.285976e-01 3.100262e-01 -1.598820e+02 6.969487e+04
-1.132813e-01 2.250644e-01 3.019760e-01 -1.527396e+02 6.758762e+04
-1.054688e-01 2.217571e-01 2.922085e-01 -1.450792e+02 6.510183e+04
-9.765625e-02 2.186776e-01 2.806560e-01 -1.369052e+02 6.222941e+04
-8.984375e-02 2.158278e-01 2.672658e-01 -1.282260e+02 5.896649e+04
-8.203125e-02 2.132094e-01 2.520021e-01 -1.190544e+02 5.531383e+04
-7.421875e-02 2.108240e-01 2.348486e-01 -1.094073e+02 5.127723e+04
-6.640625e-02 2.086731e-01 2.158097e-01 -9.930578e+01 4.686762e+04
-5.859375e-02 2.067578e-01 1.948804e-01 -8.877719e+01 4.209973e+04
-5.078125e-02 2.050794e-01 1.721691e-01 -7.790782e+01 3.703022e+04
-4.296875e-02 2.036389e-01 1.487199e-01 -6.694196e+01 3.187006e+04
-3.515625e-02 2.024372e-01 1.228835e-01 -5.537647e+01 2.627794e+04
-2.734375e-02 2.014750e-01 9.558652e-02 -4.354491e+01 2.046056e+04
-1.953125e-02 2.007528e-01 6.700232e-02 -3.150247e+01 1.446467e+04
-1.171875e-02 2.002710e-01 3.730468e-02 -1.929960e+01 8.336204e+03
-3.906250e-03 2.000301e-01 6.683107e-03 -6.987851e+00 2.123154e+03
3.906250e-03 2.000301e-01 -2.465911e-02 5.380284e+00 -4.125075e+03
1.171875e-02 2.002710e-01 -5.650837e-02 1.775208e+01 -1.035862e+04
1.953125e-02 2.007528e-01 -8.864467e-02 3.007524e+01 -1.652817e+04
2.734375e-02 2.014750e-01 -1.208456e-01 4.229863e+01 -2.258591e+04
3.515625e-02 2.024372e-01 -1.528904e-01 5.437286e+01 -2.848644e+04
4.296875e-02 2.036389e-01 -1.845630e-01 6.625062e+01 -3.418747e+04
5.078125e-02 2.050794e-01 -2.156422e-01 7.788278e+01 -3.964849e+04
5.859375e-02 2.067578e-01 -2.454101e-01 8.891444e+01 -4.472074e+04
6.640625e-02 2.086731e-01 -2.746334e-01 1.000483e+02 -4.957203e+04
7.421875e-02 2.108240e-01 -3.026600e-01 1.107812e+02 -5.408490e+04
8.203125e-02 2.132094e-01 -3.293833e-01 1.210988e+02 -5.824807e+04
8.984375e-02 2.158278e-01 -3.547070e-01 1.309868e+02 -6.205323e+04
9.765625e-02 2.186776e-01 -3.785494e-01 1.404322e+02 -6.549577e+04
1.054688e-01 2.217571e-01 -4.008461e-01 1.494247e+02 -6.857494e+04
1.132813e-01 2.250644e-01 -4.215505e-01 1.579573e+02 -7.129381e+04
1.210938e-01 2.285976e-01 -4.406341e-01 1.660258e+02 -7.365897e+04
1.289063e-01 2.323545e-01 -4.580855e-01 1.736295e+02 -7.568016e+04
1.367188e-01 2.363328e-01 -4.739093e-01 1.807703e+02 -7.736988e+04
1.445313e-01 2.405302e-01 -4.881250e-01 1.874532e+02 -7.874288e+04
1.523438e-01 2.449442e-01 -5.007647e-01 1.936856e+02 -7.981576e+04
1.601563e-01 2.495720e-01 -5.118722e-01 1.994770e+02 -8.060646e+04
1.679688e-01 2.544109e-01 -5.215004e-01 2.048391e+02 -8.113392e+04
1.757813e-01 2.594579e-01 -5.297102e-01 2.097848e+02 -8.141763e+04
1.835938e-01 2.647101e-01 -5.365688e-01 2.143287e+02 -8.147730e+04
1.914063e-01 2.701643e-01 -5.421476e-01 2.184862e+02 -8.133259e+04
1.992188e-01 2.758171e-01 -5.465216e-01 2.222736e+02 -8.100283e+04
2.070313e-01 2.816652e-01 -5.497674e-01 2.257078e+02 -8.050681e+04
2.148438e-01 2.877051e-01 -5.519625e-01 2.288058e+02 -7.986263e+04
2.226563e-01 2.939331e-01 -5.531843e-01 2.315850e+02 -7.908752e+04
2.304688e-01 3.003454e-01 -5.535089e-01 2.340628e+02 -7.819782e+04
2.382813e-01 3.069383e-01 -5.530109e-01 2.362562e+02 -7.720883e+04
2.460938e-01 3.137077e-01 -5.517625e-01 2.381823e+02 -7.613484e+04
2.539063e-01 3.206495e-01 -5.498331e-01 2.398575e+02 -7.498905e+04
2.617188e-01 3.277596e-01 -5.472892e-01 2.412979e+02 -7.378365e+04
2.695313e-01 3.350337e-01 -5.441938e-01 2.425190e+02 -7.252977e+04
2.773438e-01 3.424674e-01 -5.406065e-01 2.435359e+02 -7.123752e+04
2.851563e-01 3.500562e-01 -5.365833e-01 2.443629e+02 -6.991608e+04
2.929688e-01 3.577956e-01 -5.321765e-01 2.450138e+02 -6.857369e+04
3.007813e-01 3.656809e-01 -5.274350e-01 2.455017e+02 -6.721773e+04
3.085938e-01 3.737073e-01 -5.224039e-01 2.458391e+02 -6.585477e+04
3.164063e-01 3.818700e-01 -5.171253e-01 2.460378e+02 -6.449063e+04
3.242188e-01 3.901641e-01 -5.116376e-01 2.461089e+02 -6.313041e+04
3.320313e-01 3.985846e-01 -5.059761e-01 2.460629e+02 -6.177859e+04
3.398438e-01 4.071265e-01 -5.001732e-01 2.459098e+02 -6.043906e+04
3.476563e-01 4.157845e-01 -4.942585e-01 2.456589e+02 -5.911515e+04
3.554688e-01 4.245535e-01 -4.882586e-01 2.453189e+02 -5.780973e+04
3.632813e-01 4.334282e-01 -4.821978e-01 2.448980e+02 -5.652522e+04
3.710938e-01 4.424032e-01 -4.760982e-01 2.444038e+02 -5.526365e+04
3.789063e-01 4.514731e-01 -4.699793e-01 2.438435e+02 -5.402668e+04
3.867188e-01 4.606325e-01 -4.638588e-01 2.432237e+02 -5.281567e+04
3.945313e-01 4.698759e-01 -4.577527e-01 2.425505e+02 -5.163168e+04
4.023438e-01 4.791976e-01 -4.516748e-01 2.418299e+02 -5.047555e+04
4.101563e-01 4.885921e-01 -4.456378e-01 2.410671e+02 -4.934786e+04
4.179688e-01 4.980537e-01 -4.396526e-01 2.402671e+02 -4.824904e+04
4.257813e-01 5.075768e-01 -4.337289e-01 2.394344e+02 -4.717932e+04
4.335938e-01 5.171554e-01 -4.278751e-01 2.385734e+02 -4.613880e+04
4.414063e-01 5.267840e-01 -4.220988e-01 2.376881e+02 -4.512743e+04
4.492188e-01 5.364567e-01 -4.164061e-01 2.367819e+02 -4.414507e+04
4.570313e-01 5.461677e-01 -4.108025e-01 2.358585e+02 -4.319149e+04
4.648438e-01 5.559111e-01 -4.052927e-01 2.349207e+02 -4.226636e+04
4.726563e-01 5.656811e-01 -3.998805e-01 2.339716e+02 -4.136930e+04
4.804688e-01 5.754717e-01 -3.945691e-01 2.330138e+02 -4.049987e+04
4.882813e-01 5.852771e-01 -3.893612e-01 2.320496e+02 -3.965757e+04
4.960938e-01 5.950914e-01 -3.842587e-01 2.310814e+02 -3.884189e+04
5.039063e-01 6.049086e-01 -3.792634e-01 2.301112e+02 -3.805226e+04
5.117188e-01 6.147229e-01 -3.743762e-01 2.291410e+02 -3.728812e+04