TITLE = "Nozzle Field Local Sensitivity Data"
variables="x""area""rho_prime""u_prime""p_prime"
zone T="n=0"
I= 2048
DATAPACKING=POINT
-9.995117e-01 9.999995e-01 0.000000e+00 0.000000e+00 0.000000e+00
-9.985352e-01 9.999958e-01 0.000000e+00 0.000000e+00 0.000000e+00
-9.975586e-01 9.999882e-01 0.000000e+00 0.000000e+00 0.000000e+00
-9.965820e-01 9.999769e-01 0.000000e+00 0.000000e+00 0.000000e+00
-9.956055e-01 9.999619e-01 0.000000e+00 0.000000e+00 0.000000e+00
-9.946289e-01 9.999431e-01 0.000000e+00 0.000000e+00 0.000000e+00
-9.936523e-01 9.999205e-01 0.000000e+00 0.000000e+00 0.000000e+00
-9.926758e-01 9.998941e-01 0.000000e+00 0.000000e+00 0.000000e+00
-9.916992e-01 9.998640e-01 0.000000e+00 0.000000e+00 0.000000e+00
-9.907227e-01 9.998301e-01 0.000000e+00 0.000000e+00 0.000000e+00
-9.897461e-01 9.997925e-01 0.000000e+00 0.000000e+00 0.000000e+00
-9.887695e-01 9.997511e-01 0.000000e+00 0.000000e+00 0.000000e+00
-9.877930e-01 9.997059e-01 0.000000e+00 0.000000e+00 0.000000e+00
-9.868164e-01 9.996570e-01 0.000000e+00 0.000000e+00 0.000000e+00
-9.858398e-01 9.996043e-01 0.000000e+00 0.000000e+00 0.000000e+00
-9.848633e-01 9.995478e-01 0.000000e+00 0.000000e+00 0.000000e+00
-9.838867e-01 9.994876e-01 0.000000e+00 0.000000e+00 0.000000e+00
-9.829102e-01 9.994236e-01 0.000000e+00 0.000000e+00 0.000000e+00
-9.819336e-01 9.993559e-01 0.000000e+00 0.000000e+00 0.000000e+00
-9.809570e-01 9.992844e-01 0.000000e+00 0.000000e+00 0.000000e+00
-9.799805e-01 9.992091e-01 0.000000e+00 0.000000e+00 0.000000e+00
-9.790039e-01 9.991301e-01 0.000000e+00 0.000000e+00 0.000000e+00
-9.780273e-01 9.990474e-01 0.000000e+00 0.000000e+00 0.000000e+00
-9.770508e-01 9.989609e-01 0.000000e+00 0.000000e+00 0.000000e+00
-9.760742e-01 9.988706e-01 0.000000e+00 0.000000e+00 0.000000e+00
-9.750977e-01 9.987765e-01 0.000000e+00 0.000000e+00 0.000000e+00
-9.741211e-01 9.986788e-01 0.000000e+00 0.000000e+00 0.000000e+00
-9.731445e-01 9.985772e-01 0.000000e+00 0.000000e+00 0.000000e+00
-9.721680e-01 9.984719e-01 0.000000e+00 0.000000e+00 0.000000e+00
-9.711914e-01 9.983629e-01 0.000000e+00 0.000000e+00 0.000000e+00
-9.702148e-01 9.982501e-01 0.000000e+00 0.000000e+00 0.000000e+00
-9.692383e-01 9.981336e-01 0.000000e+00 0.000000e+00 0.000000e+00
-9.682617e-01 9.980133e-01 0.000000e+00 0.000000e+00 0.000000e+00
-9.672852e-01 9.978892e-01 0.000000e+00 0.000000e+00 0.000000e+00
-9.663086e-01 9.977615e-01 0.000000e+00 0.000000e+00 0.000000e+00
-9.653320e-01 9.976300e-01 0.000000e+00 0.000000e+00 0.000000e+00
-9.643555e-01 9.974947e-01 0.000000e+00 0.000000e+00 0.000000e+00
-9.633789e-01 9.973557e-01 0.000000e+00 0.000000e+00 0.000000e+00
-9.624023e-01 9.972129e-01 0.000000e+00 0.000000e+00 0.000000e+00
-9.614258e-01 9.970665e-01 0.000000e+00 0.000000e+00 0.000000e+00
-9.604492e-01 9.969162e-01 0.000000e+00 0.000000e+00 0.000000e+00
-9.594727e-01 9.967623e-01 0.000000e+00 0.000000e+00 0.000000e+00
-9.584961e-01 9.966046e-01 0.000000e+00 0.000000e+00 0.000000e+00
-9.575195e-01 9.964432e-01 0.000000e+00 0.000000e+00 0.000000e+00
-9.565430e-01 9.962780e-01 0.000000e+00 0.000000e+00 0.000000e+00
-9.555664e-01 9.961091e-01 0.000000e+00 0.000000e+00 0.000000e+00
-9.545898e-01 9.959365e-01 0.000000e+00 0.000000e+00 0.000000e+00
-9.536133e-01 9.957602e-01 0.000000e+00 0.000000e+00 0.000000e+00
-9.526367e-01 9.955801e-01 0.000000e+00 0.000000e+00 0.000000e+00
-9.516602e-01 9.953963e-01 0.000000e+00 0.000000e+00 0.000000e+00
-9.506836e-01 9.952088e-01 0.000000e+00 0.000000e+00 0.000000e+00
-9.497070e-01 9.950176e-01 0.000000e+00 0.000000e+00 0.000000e+00
-9.487305e-01 9.948226e-01 0.000000e+00 0.000000e+00 0.000000e+00
-9.477539e-01 9.946240e-01 0.000000e+00 0.000000e+00 0.000000e+00
-9.467773e-01 9.944216e-01 0.000000e+00 0.000000e+00 0.000000e+00
-9.458008e-01 9.942155e-01 0.000000e+00 0.000000e+00 0.000000e+00
-9.448242e-01 9.940057e-01 0.000000e+00 0.000000e+00 0.000000e+00
-9.438477e-01 9.937922e-01 0.000000e+00 0.000000e+00 0.000000e+00
-9.428711e-01 9.935750e-01 0.000000e+00 0.000000e+00 0.000000e+00
-9.418945e-01 9.933540e-01 0.000000e+00 0.000000e+00 0.000000e+00
-9.409180e-01 9.931294e-01 0.000000e+00 0.000000e+00 0.000000e+00
-9.399414e-01 9.929011e-01 0.000000e+00 0.000000e+00 0.000000e+00
-9.389648e-01 9.926691e-01 0.000000e+00 0.000000e+00 0.000000e+00
-9.379883e-01 9.924334e-01 0.000000e+00 0.000000e+00 0.000000e+00
-9.370117e-01 9.921939e-01 0.000000e+00 0.000000e+00 0.000000e+00
-9.360352e-01 9.919508e-01 0.000000e+00 0.000000e+00 0.000000e+00
-9.350586e-01 9.917040e-01 0.000000e+00 0.000000e+00 0.000000e+00
-9.340820e-01 9.914536e-01 0.000000e+00 0.000000e+00 0.000000e+00
-9.331055e-01 9.911994e-01 0.000000e+00 0.000000e+00 0.000000e+00
-9.321289e-01 9.909416e-01 0.000000e+00 0.000000e+00 0.000000e+00
-9.311523e-01 9.906800e-01 0.000000e+00 0.000000e+00 0.000000e+00
-9.301758e-01 9.904148e-01 0.000000e+00 0.000000e+00 0.000000e+00
-9.291992e-01 9.901460e-01 0.000000e+00 0.000000e+00 0.000000e+00
-9.282227e-01 9.898734e-01 0.000000e+00 0.000000e+00 0.000000e+00
-9.272461e-01 9.895972e-01 0.000000e+00 0.000000e+00 0.000000e+00
-9.262695e-01 9.893173e-01 0.000000e+00 0.000000e+00 0.000000e+00
-9.252930e-01 9.890337e-01 0.000000e+00 0.000000e+00 0.000000e+00
-9.243164e-01 9.887465e-01 0.000000e+00 0.000000e+00 0.000000e+00
-9.233398e-01 9.884557e-01 0.000000e+00 0.000000e+00 0.000000e+00
-9.223633e-01 9.881611e-01 0.000000e+00 0.000000e+00 0.000000e+00
-9.213867e-01 9.878630e-01 0.000000e+00 0.000000e+00 0.000000e+00
-9.204102e-01 9.875611e-01 0.000000e+00 0.000000e+00 0.000000e+00
-9.194336e-01 9.872556e-01 0.000000e+00 0.000000e+00 0.000000e+00
-9.184570e-01 9.869465e-01 0.000000e+00 0.000000e+00 0.000000e+00
-9.174805e-01 9.866337e-01 0.000000e+00 0.000000e+00 0.000000e+00
-9.165039e-01 9.863173e-01 0.000000e+00 0.000000e+00 0.000000e+00
-9.155273e-01 9.859973e-01 0.000000e+00 0.000000e+00 0.000000e+00
-9.145508e-01 9.856736e-01 0.000000e+00 0.000000e+00 0.000000e+00
-9.135742e-01 9.853463e-01 0.000000e+00 0.000000e+00 0.000000e+00
-9.125977e-01 9.850154e-01 0.000000e+00 0.000000e+00 0.000000e+00
-9.116211e-01 9.846808e-01 0.000000e+00 0.000000e+00 0.000000e+00
-9.106445e-01 9.843427e-01 0.000000e+00 0.000000e+00 0.000000e+00
-9.096680e-01 9.840009e-01 0.000000e+00 0.000000e+00 0.000000e+00
-9.086914e-01 9.836554e-01 0.000000e+00 0.000000e+00 0.000000e+00
-9.077148e-01 9.833064e-01 0.000000e+00 0.000000e+00 0.000000e+00
-9.067383e-01 9.829538e-01 0.000000e+00 0.000000e+00 0.000000e+00
-9.057617e-01 9.825976e-01 0.000000e+00 0.000000e+00 0.000000e+00
-9.047852e-01 9.822377e-01 0.000000e+00 0.000000e+00 0.000000e+00
-9.038086e-01 9.818743e-01 0.000000e+00 0.000000e+00 0.000000e+00
-9.028320e-01 9.815073e-01 0.000000e+00 0.000000e+00 0.000000e+00
-9.018555e-01 9.811367e-01 0.000000e+00 0.000000e+00 0.000000e+00
-9.008789e-01 9.807625e-01 0.000000e+00 0.000000e+00 0.000000e+00
-8.999023e-01 9.803847e-01 0.000000e+00 0.000000e+00 0.000000e+00
-8.989258e-01 9.800033e-01 0.000000e+00 0.000000e+00 0.000000e+00
-8.979492e-01 9.796184e-01 0.000000e+00 0.000000e+00 0.000000e+00
-8.969727e-01 9.792298e-01 0.000000e+00 0.000000e+00 0.000000e+00
-8.959961e-01 9.788377e-01 0.000000e+00 0.000000e+00 0.000000e+00
-8.950195e-01 9.784421e-01 0.000000e+00 0.000000e+00 0.000000e+00
-8.940430e-01 9.780429e-01 0.000000e+00 0.000000e+00 0.000000e+00
-8.930664e-01 9.776401e-01 0.000000e+00 0.000000e+00 0.000000e+00
-8.920898e-01 9.772338e-01 0.000000e+00 0.000000e+00 0.000000e+00
-8.911133e-01 9.768239e-01 0.000000e+00 0.000000e+00 0.000000e+00
-8.901367e-01 9.764105e-01 0.000000e+00 0.000000e+00 0.000000e+00
-8.891602e-01 9.759935e-01 0.000000e+00 0.000000e+00 0.000000e+00
-8.881836e-01 9.755730e-01 0.000000e+00 0.000000e+00 0.000000e+00
-8.872070e-01 9.751490e-01 0.000000e+00 0.000000e+00 0.000000e+00
-8.862305e-01 9.747214e-01 0.000000e+00 0.000000e+00 0.000000e+00
-8.852539e-01 9.742903e-01 0.000000e+00 0.000000e+00 0.000000e+00
-8.842773e-01 9.738557e-01 0.000000e+00 0.000000e+00 0.000000e+00
-8.833008e-01 9.734175e-01 0.000000e+00 0.000000e+00 0.000000e+00
-8.823242e-01 9.729759e-01 0.000000e+00 0.000000e+00 0.000000e+00
-8.813477e-01 9.725307e-01 0.000000e+00 0.000000e+00 0.000000e+00
-8.803711e-01 9.720820e-01 0.000000e+00 0.000000e+00 0.000000e+00
-8.793945e-01 9.716298e-01 0.000000e+00 0.000000e+00 0.000000e+00
-8.784180e-01 9.711742e-01 0.000000e+00 0.000000e+00 0.000000e+00
-8.774414e-01 9.707150e-01 0.000000e+00 0.000000e+00 0.000000e+00
-8.764648e-01 9.702523e-01 0.000000e+00 0.000000e+00 0.000000e+00
-8.754883e-01 9.697862e-01 0.000000e+00 0.000000e+00 0.000000e+00
-8.745117e-01 9.693166e-01 0.000000e+00 0.000000e+00 0.000000e+00
-8.735352e-01 9.688435e-01 0.000000e+00 0.000000e+00 0.000000e+00
-8.725586e-01 9.683669e-01 0.000000e+00 0.000000e+00 0.000000e+00
-8.715820e-01 9.678869e-01 0.000000e+00 0.000000e+00 0.000000e+00
-8.706055e-01 9.674034e-01 0.000000e+00 0.000000e+00 0.000000e+00
-8.696289e-01 9.669164e-01 0.000000e+00 0.000000e+00 0.000000e+00
-8.686523e-01 9.664260e-01 0.000000e+00 0.000000e+00 0.000000e+00
-8.676758e-01 9.659321e-01 0.000000e+00 0.000000e+00 0.000000e+00
-8.666992e-01 9.654348e-01 0.000000e+00 0.000000e+00 0.000000e+00
-8.657227e-01 9.649341e-01 0.000000e+00 0.000000e+00 0.000000e+00
-8.647461e-01 9.644299e-01 0.000000e+00 0.000000e+00 0.000000e+00
-8.637695e-01 9.639223e-01 0.000000e+00 0.000000e+00 0.000000e+00
-8.627930e-01 9.634112e-01 0.000000e+00 0.000000e+00 0.000000e+00
-8.618164e-01 9.628968e-01 0.000000e+00 0.000000e+00 0.000000e+00
-8.608398e-01 9.623789e-01 0.000000e+00 0.000000e+00 0.000000e+00
-8.598633e-01 9.618576e-01 0.000000e+00 0.000000e+00 0.000000e+00
-8.588867e-01 9.613329e-01 0.000000e+00 0.000000e+00 0.000000e+00
-8.579102e-01 9.608049e-01 0.000000e+00 0.000000e+00 0.000000e+00
-8.569336e-01 9.602734e-01 0.000000e+00 0.000000e+00 0.000000e+00
-8.559570e-01 9.597385e-01 0.000000e+00 0.000000e+00 0.000000e+00
-8.549805e-01 9.592002e-01 0.000000e+00 0.000000e+00 0.000000e+00
-8.540039e-01 9.586586e-01 0.000000e+00 0.000000e+00 0.000000e+00
-8.530273e-01 9.581136e-01 0.000000e+00 0.000000e+00 0.000000e+00
-8.520508e-01 9.575652e-01 0.000000e+00 0.000000e+00 0.000000e+00
-8.510742e-01 9.570134e-01 0.000000e+00 0.000000e+00 0.000000e+00
-8.500977e-01 9.564583e-01 0.000000e+00 0.000000e+00 0.000000e+00
-8.491211e-01 9.558998e-01 0.000000e+00 0.000000e+00 0.000000e+00
-8.481445e-01 9.553380e-01 0.000000e+00 0.000000e+00 0.000000e+00
-8.471680e-01 9.547728e-01 0.000000e+00 0.000000e+00 0.000000e+00
-8.461914e-01 9.542043e-01 0.000000e+00 0.000000e+00 0.000000e+00
-8.452148e-01 9.536325e-01 0.000000e+00 0.000000e+00 0.000000e+00
-8.442383e-01 9.530573e-01 0.000000e+00 0.000000e+00 0.000000e+00
-8.432617e-01 9.524788e-01 0.000000e+00 0.000000e+00 0.000000e+00
-8.422852e-01 9.518970e-01 0.000000e+00 0.000000e+00 0.000000e+00
-8.413086e-01 9.513119e-01 0.000000e+00 0.000000e+00 0.000000e+00
-8.403320e-01 9.507235e-01 0.000000e+00 0.000000e+00 0.000000e+00
-8.393555e-01 9.501318e-01 0.000000e+00 0.000000e+00 0.000000e+00
-8.383789e-01 9.495367e-01 0.000000e+00 0.000000e+00 0.000000e+00
-8.374023e-01 9.489384e-01 0.000000e+00 0.000000e+00 0.000000e+00
-8.364258e-01 9.483368e-01 0.000000e+00 0.000000e+00 0.000000e+00
-8.354492e-01 9.477319e-01 0.000000e+00 0.000000e+00 0.000000e+00
-8.344727e-01 9.471238e-01 0.000000e+00 0.000000e+00 0.000000e+00
-8.334961e-01 9.465124e-01 0.000000e+00 0.000000e+00 0.000000e+00
-8.325195e-01 9.458977e-01 0.000000e+00 0.000000e+00 0.000000e+00
-8.315430e-01 9.452798e-01 0.000000e+00 0.000000e+00 0.000000e+00
-8.305664e-01 9.446586e-01 0.000000e+00 0.000000e+00 0.000000e+00
-8.295898e-01 9.440342e-01 0.000000e+00 0.000000e+00 0.000000e+00
-8.286133e-01 9.434065e-01 0.000000e+00 0.000000e+00 0.000000e+00
-8.276367e-01 9.427756e-01 0.000000e+00 0.000000e+00 0.000000e+00
-8.266602e-01 9.421415e-01 0.000000e+00 0.000000e+00 0.000000e+00
-8.256836e-01 9.415041e-01 0.000000e+00 0.000000e+00 0.000000e+00
-8.247070e-01 9.408636e-01 0.000000e+00 0.000000e+00 0.000000e+00
-8.237305e-01 9.402198e-01 0.000000e+00 0.000000e+00 0.000000e+00
-8.227539e-01 9.395728e-01 0.000000e+00 0.000000e+00 0.000000e+00
-8.217773e-01 9.389227e-01 0.000000e+00 0.000000e+00 0.000000e+00
-8.208008e-01 9.382693e-01 0.000000e+00 0.000000e+00 0.000000e+00
-8.198242e-01 9.376128e-01 0.000000e+00 0.000000e+00 0.000000e+00
-8.188477e-01 9.369530e-01 0.000000e+00 0.000000e+00 0.000000e+00
-8.178711e-01 9.362901e-01 0.000000e+00 0.000000e+00 0.000000e+00
-8.168945e-01 9.356241e-01 0.000000e+00 0.000000e+00 0.000000e+00
-8.159180e-01 9.349549e-01 0.000000e+00 0.000000e+00 0.000000e+00
-8.149414e-01 9.342825e-01 0.000000e+00 0.000000e+00 0.000000e+00
-8.139648e-01 9.336070e-01 0.000000e+00 0.000000e+00 0.000000e+00
-8.129883e-01 9.329283e-01 0.000000e+00 0.000000e+00 0.000000e+00
-8.120117e-01 9.322466e-01 0.000000e+00 0.000000e+00 0.000000e+00
-8.110352e-01 9.315616e-01 0.000000e+00 0.000000e+00 0.000000e+00
-8.100586e-01 9.308736e-01 0.000000e+00 0.000000e+00 0.000000e+00
-8.090820e-01 9.301825e-01 0.000000e+00 0.000000e+00 0.000000e+00
-8.081055e-01 9.294882e-01 0.000000e+00 0.000000e+00 0.000000e+00
-8.071289e-01 9.287908e-01 0.000000e+00 0.000000e+00 0.000000e+00
-8.061523e-01 9.280904e-01 0.000000e+00 0.000000e+00 0.000000e+00
-8.051758e-01 9.273869e-01 0.000000e+00 0.000000e+00 0.000000e+00
-8.041992e-01 9.266802e-01 0.000000e+00 0.000000e+00 0.000000e+00
-8.032227e-01 9.259705e-01 0.000000e+00 0.000000e+00 0.000000e+00
-8.022461e-01 9.252578e-01 0.000000e+00 0.000000e+00 0.000000e+00
-8.012695e-01 9.245419e-01 0.000000e+00 0.000000e+00 0.000000e+00
-8.002930e-01 9.238231e-01 0.000000e+00 0.000000e+00 0.000000e+00
-7.993164e-01 9.231011e-01 0.000000e+00 0.000000e+00 0.000000e+00
-7.983398e-01 9.223762e-01 0.000000e+00 0.000000e+00 0.000000e+00
-7.973633e-01 9.216482e-01 0.000000e+00 0.000000e+00 0.000000e+00
-7.963867e-01 9.209171e-01 0.000000e+00 0.000000e+00 0.000000e+00
-7.954102e-01 9.201831e-01 0.000000e+00 0.000000e+00 0.000000e+00
-7.944336e-01 9.194460e-01 0.000000e+00 0.000000e+00 0.000000e+00
-7.934570e-01 9.187059e-01 0.000000e+00 0.000000e+00 0.000000e+00
-7.924805e-01 9.179629e-01 0.000000e+00 0.000000e+00 0.000000e+00
-7.915039e-01 9.172168e-01 0.000000e+00 0.000000e+00 0.000000e+00
-7.905273e-01 9.164677e-01 0.000000e+00 0.000000e+00 0.000000e+00
-7.895508e-01 9.157157e-01 0.000000e+00 0.000000e+00 0.000000e+00
-7.885742e-01 9.149607e-01 0.000000e+00 0.000000e+00 0.000000e+00
-7.875977e-01 9.142027e-01 0.000000e+00 0.000000e+00 0.000000e+00
-7.866211e-01 9.134418e-01 0.000000e+00 0.000000e+00 0.000000e+00
-7.856445e-01 9.126779e-01 0.000000e+00 0.000000e+00 0.000000e+00
-7.846680e-01 9.119111e-01 0.000000e+00 0.000000e+00 0.000000e+00
-7.836914e-01 9.111414e-01 0.000000e+00 0.000000e+00 0.000000e+00
-7.827148e-01 9.103687e-01 0.000000e+00 0.000000e+00 0.000000e+00
-7.817383e-01 9.095931e-01 0.000000e+00 0.000000e+00 0.000000e+00
-7.807617e-01 9.088146e-01 0.000000e+00 0.000000e+00 0.000000e+00
-7.797852e-01 9.080331e-01 0.000000e+00 0.000000e+00 0.000000e+00
-7.788086e-01 9.072488e-01 0.000000e+00 0.000000e+00 0.000000e+00
-7.778320e-01 9.064616e-01 0.000000e+00 0.000000e+00 0.000000e+00
-7.768555e-01 9.056715e-01 0.000000e+00 0.000000e+00 0.000000e+00
-7.758789e-01 9.048785e-01 0.000000e+00 0.000000e+00 0.000000e+00
-7.749023e-01 9.040827e-01 0.000000e+00 0.000000e+00 0.000000e+00
-7.739258e-01 9.032840e-01 0.000000e+00 0.000000e+00 0.000000e+00
-7.729492e-01 9.024824e-01 0.000000e+00 0.000000e+00 0.000000e+00
-7.719727e-01 9.016780e-01 0.000000e+00 0.000000e+00 0.000000e+00
-7.709961e-01 9.008707e-01 0.000000e+00 0.000000e+00 0.000000e+00
-7.700195e-01 9.000607e-01 0.000000e+00 0.000000e+00 0.000000e+00
-7.690430e-01 8.992478e-01 0.000000e+00 0.000000e+00 0.000000e+00
-7.680664e-01 8.984320e-01 0.000000e+00 0.000000e+00 0.000000e+00
-7.670898e-01 8.976135e-01 0.000000e+00 0.000000e+00 0.000000e+00
-7.661133e-01 8.967922e-01 0.000000e+00 0.000000e+00 0.000000e+00
-7.651367e-01 8.959680e-01 0.000000e+00 0.000000e+00 0.000000e+00
-7.641602e-01 8.951411e-01 0.000000e+00 0.000000e+00 0.000000e+00
-7.631836e-01 8.943114e-01 0.000000e+00 0.000000e+00 0.000000e+00
-7.622070e-01 8.934790e-01 0.000000e+00 0.000000e+00 0.000000e+00
-7.612305e-01 8.926438e-01 0.000000e+00 0.000000e+00 0.000000e+00
-7.602539e-01 8.918058e-01 0.000000e+00 0.000000e+00 0.000000e+00
-7.592773e-01 8.909651e-01 0.000000e+00 0.000000e+00 0.000000e+00
-7.583008e-01 8.901216e-01 0.000000e+00 0.000000e+00 0.000000e+00
-7.573242e-01 8.892754e-01 0.000000e+00 0.000000e+00 0.000000e+00
-7.563477e-01 8.884265e-01 0.000000e+00 0.000000e+00 0.000000e+00
-7.553711e-01 8.875748e-01 0.000000e+00 0.000000e+00 0.000000e+00
-7.543945e-01 8.867205e-01 0.000000e+00 0.000000e+00 0.000000e+00
-7.534180e-01 8.858635e-01 0.000000e+00 0.000000e+00 0.000000e+00
-7.524414e-01 8.850037e-01 0.000000e+00 0.000000e+00 0.000000e+00
-7.514648e-01 8.841413e-01 0.000000e+00 0.000000e+00 0.000000e+00
-7.504883e-01 8.832763e-01 0.000000e+00 0.000000e+00 0.000000e+00
-7.495117e-01 8.824085e-01 0.000000e+00 0.000000e+00 0.000000e+00
-7.485352e-01 8.815381e-01 0.000000e+00 0.000000e+00 0.000000e+00
-7.475586e-01 8.806650e-01 0.000000e+00 0.000000e+00 0.000000e+00
-7.465820e-01 8.797893e-01 0.000000e+00 0.000000e+00 0.000000e+00
-7.456055e-01 8.789110e-01 0.000000e+00 0.000000e+00 0.000000e+00
-7.446289e-01 8.780300e-01 0.000000e+00 0.000000e+00 0.000000e+00
-7.436523e-01 8.771465e-01 0.000000e+00 0.000000e+00 0.000000e+00
-7.426758e-01 8.762603e-01 0.000000e+00 0.000000e+00 0.000000e+00
-7.416992e-01 8.753715e-01 0.000000e+00 0.000000e+00 0.000000e+00
-7.407227e-01 8.744801e-01 0.000000e+00 0.000000e+00 0.000000e+00
-7.397461e-01 8.735862e-01 0.000000e+00 0.000000e+00 0.000000e+00
-7.387695e-01 8.726896e-01 0.000000e+00 0.000000e+00 0.000000e+00
-7.377930e-01 8.717905e-01 0.000000e+00 0.000000e+00 0.000000e+00
-7.368164e-01 8.708889e-01 0.000000e+00 0.000000e+00 0.000000e+00
-7.358398e-01 8.699847e-01 0.000000e+00 0.000000e+00 0.000000e+00
-7.348633e-01 8.690779e-01 0.000000e+00 0.000000e+00 0.000000e+00
-7.338867e-01 8.681686e-01 0.000000e+00 0.000000e+00 0.000000e+00
-7.329102e-01 8.672568e-01 0.000000e+00 0.000000e+00 0.000000e+00
-7.319336e-01 8.663425e-01 0.000000e+00 0.000000e+00 0.000000e+00
-7.309570e-01 8.654257e-01 0.000000e+00 0.000000e+00 0.000000e+00
-7.299805e-01 8.645063e-01 0.000000e+00 0.000000e+00 0.000000e+00
-7.290039e-01 8.635845e-01 0.000000e+00 0.000000e+00 0.000000e+00
-7.280273e-01 8.626602e-01 0.000000e+00 0.000000e+00 0.000000e+00
-7.270508e-01 8.617334e-01 0.000000e+00 0.000000e+00 0.000000e+00
-7.260742e-01 8.608042e-01 0.000000e+00 0.000000e+00 0.000000e+00
-7.250977e-01 8.598725e-01 0.000000e+00 0.000000e+00 0.000000e+00
-7.241211e-01 8.589384e-01 0.000000e+00 0.000000e+00 0.000000e+00
-7.231445e-01 8.580018e-01 0.000000e+00 0.000000e+00 0.000000e+00
-7.221680e-01 8.570628e-01 0.000000e+00 0.000000e+00 0.000000e+00
-7.211914e-01 8.561214e-01 0.000000e+00 0.000000e+00 0.000000e+00
-7.202148e-01 8.551776e-01 0.000000e+00 0.000000e+00 0.000000e+00
-7.192383e-01 8.542313e-01 0.000000e+00 0.000000e+00 0.000000e+00
-7.182617e-01 8.532827e-01 0.000000e+00 0.000000e+00 0.000000e+00
-7.172852e-01 8.523317e-01 0.000000e+00 0.000000e+00 0.000000e+00
-7.163086e-01 8.513783e-01 0.000000e+00 0.000000e+00 0.000000e+00
-7.153320e-01 8.504226e-01 0.000000e+00 0.000000e+00 0.000000e+00
-7.143555e-01 8.494644e-01 0.000000e+00 0.000000e+00 0.000000e+00
-7.133789e-01 8.485040e-01 0.000000e+00 0.000000e+00 0.000000e+00
-7.124023e-01 8.475412e-01 0.000000e+00 0.000000e+00 0.000000e+00
-7.114258e-01 8.465761e-01 0.000000e+00 0.000000e+00 0.000000e+00
-7.104492e-01 8.456086e-01 0.000000e+00 0.000000e+00 0.000000e+00
-7.094727e-01 8.446389e-01 0.000000e+00 0.000000e+00 0.000000e+00
-7.084961e-01 8.436668e-01 0.000000e+00 0.000000e+00 0.000000e+00
-7.075195e-01 8.426925e-01 0.000000e+00 0.000000e+00 0.000000e+00
-7.065430e-01 8.417158e-01 0.000000e+00 0.000000e+00 0.000000e+00
-7.055664e-01 8.407369e-01 0.000000e+00 0.000000e+00 0.000000e+00
-7.045898e-01 8.397557e-01 0.000000e+00 0.000000e+00 0.000000e+00
-7.036133e-01 8.387723e-01 0.000000e+00 0.000000e+00 0.000000e+00
-7.026367e-01 8.377866e-01 0.000000e+00 0.000000e+00 0.000000e+00
-7.016602e-01 8.367987e-01 0.000000e+00 0.000000e+00 0.000000e+00
-7.006836e-01 8.358085e-01 0.000000e+00 0.000000e+00 0.000000e+00
-6.997070e-01 8.348162e-01 0.000000e+00 0.000000e+00 0.000000e+00
-6.987305e-01 8.338216e-01 0.000000e+00 0.000000e+00 0.000000e+00
-6.977539e-01 8.328248e-01 0.000000e+00 0.000000e+00 0.000000e+00
-6.967773e-01 8.318258e-01 0.000000e+00 0.000000e+00 0.000000e+00
-6.958008e-01 8.308247e-01 0.000000e+00 0.000000e+00 0.000000e+00
-6.948242e-01 8.298213e-01 0.000000e+00 0.000000e+00 0.000000e+00
-6.938477e-01 8.288159e-01 0.000000e+00 0.000000e+00 0.000000e+00
-6.928711e-01 8.278082e-01 0.000000e+00 0.000000e+00 0.000000e+00
-6.918945e-01 8.267984e-01 0.000000e+00 0.000000e+00 0.000000e+00
-6.909180e-01 8.257865e-01 0.000000e+00 0.000000e+00 0.000000e+00
-6.899414e-01 8.247724e-01 0.000000e+00 0.000000e+00 0.000000e+00
-6.889648e-01 8.237563e-01 0.000000e+00 0.000000e+00 0.000000e+00
-6.879883e-01 8.227380e-01 0.000000e+00 0.000000e+00 0.000000e+00
-6.870117e-01 8.217176e-01 0.000000e+00 0.000000e+00 0.000000e+00
-6.860352e-01 8.206952e-01 0.000000e+00 0.000000e+00 0.000000e+00
-6.850586e-01 8.196707e-01 0.000000e+00 0.000000e+00 0.000000e+00
-6.840820e-01 8.186441e-01 0.000000e+00 0.000000e+00 0.000000e+00
-6.831055e-01 8.176154e-01 0.000000e+00 0.000000e+00 0.000000e+00
-6.821289e-01 8.165847e-01 0.000000e+00 0.000000e+00 0.000000e+00
-6.811523e-01 8.155520e-01 0.000000e+00 0.000000e+00 0.000000e+00
-6.801758e-01 8.145172e-01 0.000000e+00 0.000000e+00 0.000000e+00
-6.791992e-01 8.134804e-01 0.000000e+00 0.000000e+00 0.000000e+00
-6.782227e-01 8.124416e-01 0.000000e+00 0.000000e+00 0.000000e+00
-6.772461e-01 8.114008e-01 0.000000e+00 0.000000e+00 0.000000e+00
-6.762695e-01 8.103580e-01 0.000000e+00 0.000000e+00 0.000000e+00
-6.752930e-01 8.093132e-01 0.000000e+00 0.000000e+00 0.000000e+00
-6.743164e-01 8.082665e-01 0.000000e+00 0.000000e+00 0.000000e+00
-6.733398e-01 8.072178e-01 0.000000e+00 0.000000e+00 0.000000e+00
-6.723633e-01 8.061672e-01 0.000000e+00 0.000000e+00 0.000000e+00
-6.713867e-01 8.051146e-01 0.000000e+00 0.000000e+00 0.000000e+00
-6.704102e-01 8.040600e-01 0.000000e+00 0.000000e+00 0.000000e+00
-6.694336e-01 8.030036e-01 0.000000e+00 0.000000e+00 0.000000e+00
-6.684570e-01 8.019452e-01 0.000000e+00 0.000000e+00 0.000000e+00
-6.674805e-01 8.008850e-01 0.000000e+00 0.000000e+00 0.000000e+00
-6.665039e-01 7.998228e-01 0.000000e+00 0.000000e+00 0.000000e+00
-6.655273e-01 7.987588e-01 0.000000e+00 0.000000e+00 0.000000e+00
-6.645508e-01 7.976929e-01 0.000000e+00 0.000000e+00 0.000000e+00
-6.635742e-01 7.966252e-01 0.000000e+00 0.000000e+00 0.000000e+00
-6.625977e-01 7.955556e-01 0.000000e+00 0.000000e+00 0.000000e+00
-6.616211e-01 7.944841e-01 0.000000e+00 0.000000e+00 0.000000e+00
-6.606445e-01 7.934108e-01 0.000000e+00 0.000000e+00 0.000000e+00
-6.596680e-01 7.923357e-01 0.000000e+00 0.000000e+00 0.000000e+00
-6.586914e-01 7.912588e-01 0.000000e+00 0.000000e+00 0.000000e+00
-6.577148e-01 7.901801e-01 0.000000e+00 0.000000e+00 0.000000e+00
-6.567383e-01 7.890996e-01 0.000000e+00 0.000000e+00 0.000000e+00
-6.557617e-01 7.880173e-01 0.000000e+00 0.000000e+00 0.000000e+00
-6.547852e-01 7.869333e-01 0.000000e+00 0.000000e+00 0.000000e+00
-6.538086e-01 7.858475e-01 0.000000e+00 0.000000e+00 0.000000e+00
-6.528320e-01 7.847599e-01 0.000000e+00 0.000000e+00 0.000000e+00
-6.518555e-01 7.836706e-01 0.000000e+00 0.000000e+00 0.000000e+00
-6.508789e-01 7.825796e-01 0.000000e+00 0.000000e+00 0.000000e+00
-6.499023e-01 7.814868e-01 0.000000e+00 0.000000e+00 0.000000e+00
-6.489258e-01 7.803924e-01 0.000000e+00 0.000000e+00 0.000000e+00
-6.479492e-01 7.792962e-01 0.000000e+00 0.000000e+00 0.000000e+00
-6.469727e-01 7.781984e-01 0.000000e+00 0.000000e+00 0.000000e+00
-6.459961e-01 7.770989e-01 0.000000e+00 0.000000e+00 0.000000e+00
-6.450195e-01 7.759977e-01 0.000000e+00 0.000000e+00 0.000000e+00
-6.440430e-01 7.748949e-01 0.000000e+00 0.000000e+00 0.000000e+00
-6.430664e-01 7.737904e-01 0.000000e+00 0.000000e+00 0.000000e+00
-6.420898e-01 7.726843e-01 0.000000e+00 0.000000e+00 0.000000e+00
-6.411133e-01 7.715765e-01 0.000000e+00 0.000000e+00 0.000000e+00
-6.401367e-01 7.704672e-01 0.000000e+00 0.000000e+00 0.000000e+00
-6.391602e-01 7.693562e-01 0.000000e+00 0.000000e+00 0.000000e+00
-6.381836e-01 7.682436e-01 0.000000e+00 0.000000e+00 0.000000e+00
-6.372070e-01 7.671295e-01 0.000000e+00 0.000000e+00 0.000000e+00
-6.362305e-01 7.660138e-01 0.000000e+00 0.000000e+00 0.000000e+00
-6.352539e-01 7.648965e-01 0.000000e+00 0.000000e+00 0.000000e+00
-6.342773e-01 7.637777e-01 0.000000e+00 0.000000e+00 0.000000e+00
-6.333008e-01 7.626573e-01 0.000000e+00 0.000000e+00 0.000000e+00
-6.323242e-01 7.615354e-01 0.000000e+00 0.000000e+00 0.000000e+00
-6.313477e-01 7.604120e-01 0.000000e+00 0.000000e+00 0.000000e+00
-6.303711e-01 7.592870e-01 0.000000e+00 0.000000e+00 0.000000e+00
-6.293945e-01 7.581606e-01 0.000000e+00 0.000000e+00 0.000000e+00
-6.284180e-01 7.570327e-01 0.000000e+00 0.000000e+00 0.000000e+00
-6.274414e-01 7.559033e-01 0.000000e+00 0.000000e+00 0.000000e+00
-6.264648e-01 7.547724e-01 0.000000e+00 0.000000e+00 0.000000e+00
-6.254883e-01 7.536401e-01 0.000000e+00 0.000000e+00 0.000000e+00
-6.245117e-01 7.525063e-01 0.000000e+00 0.000000e+00 0.000000e+00
-6.235352e-01 7.513711e-01 0.000000e+00 0.000000e+00 0.000000e+00
-6.225586e-01 7.502345e-01 0.000000e+00 0.000000e+00 0.000000e+00
-6.215820e-01 7.490964e-01 0.000000e+00 0.000000e+00 0.000000e+00
-6.206055e-01 7.479570e-01 0.000000e+00 0.000000e+00 0.000000e+00
-6.196289e-01 7.468161e-01 0.000000e+00 0.000000e+00 0.000000e+00
-6.186523e-01 7.456739e-01 0.000000e+00 0.000000e+00 0.000000e+00
-6.176758e-01 7.445303e-01 0.000000e+00 0.000000e+00 0.000000e+00
-6.166992e-01 7.433854e-01 0.000000e+00 0.000000e+00 0.000000e+00
-6.157227e-01 7.422391e-01 0.000000e+00 0.000000e+00 0.000000e+00
-6.147461e-01 7.410914e-01 0.000000e+00 0.000000e+00 0.000000e+00
-6.137695e-01 7.399425e-01 0.000000e+00 0.000000e+00 0.000000e+00
-6.127930e-01 7.387922e-01 0.000000e+00 0.000000e+00 0.000000e+00
-6.118164e-01 7.376406e-01 0.000000e+00 0.000000e+00 0.000000e+00
-6.108398e-01 7.364877e-01 0.000000e+00 0.000000e+00 0.000000e+00
-6.098633e-01 7.353335e-01 0.000000e+00 0.000000e+00 0.000000e+00
-6.088867e-01 7.341781e-01 0.000000e+00 0.000000e+00 0.000000e+00
-6.079102e-01 7.330213e-01 0.000000e+00 0.000000e+00 0.000000e+00
-6.069336e-01 7.318634e-01 0.000000e+00 0.000000e+00 0.000000e+00
-6.059570e-01 7.307042e-01 0.000000e+00 0.000000e+00 0.000000e+00
-6.049805e-01 7.295437e-01 0.000000e+00 0.000000e+00 0.000000e+00
-6.040039e-01 7.283821e-01 0.000000e+00 0.000000e+00 0.000000e+00
-6.030273e-01 7.272192e-01 0.000000e+00 0.000000e+00 0.000000e+00
-6.020508e-01 7.260552e-01 0.000000e+00 0.000000e+00 0.000000e+00
-6.010742e-01 7.248899e-01 0.000000e+00 0.000000e+00 0.000000e+00
-6.000977e-01 7.237235e-01 0.000000e+00 0.000000e+00 0.000000e+00
-5.991211e-01 7.225559e-01 0.000000e+00 0.000000e+00 0.000000e+00
-5.981445e-01 7.213872e-01 0.000000e+00 0.000000e+00 0.000000e+00
-5.971680e-01 7.202173e-01 0.000000e+00 0.000000e+00 0.000000e+00
-5.961914e-01 7.190463e-01 0.000000e+00 0.000000e+00 0.000000e+00
-5.952148e-01 7.178741e-01 0.000000e+00 0.000000e+00 0.000000e+00
-5.942383e-01 7.167009e-01 0.000000e+00 0.000000e+00 0.000000e+00
-5.932617e-01 7.155266e-01 0.000000e+00 0.000000e+00 0.000000e+00
-5.922852e-01 7.143511e-01 0.000000e+00 0.000000e+00 0.000000e+00
-5.913086e-01 7.131746e-01 0.000000e+00 0.000000e+00 0.000000e+00
-5.903320e-01 7.119971e-01 0.000000e+00 0.000000e+00 0.000000e+00
-5.893555e-01 7.108184e-01 0.000000e+00 0.000000e+00 0.000000e+00
-5.883789e-01 7.096388e-01 0.000000e+00 0.000000e+00 0.000000e+00
-5.874023e-01 7.084581e-01 0.000000e+00 0.000000e+00 0.000000e+00
-5.864258e-01 7.072763e-01 0.000000e+00 0.000000e+00 0.000000e+00
-5.854492e-01 7.060936e-01 0.000000e+00 0.000000e+00 0.000000e+00
-5.844727e-01 7.049099e-01 0.000000e+00 0.000000e+00 0.000000e+00
-5.834961e-01 7.037252e-01 0.000000e+00 0.000000e+00 0.000000e+00
-5.825195e-01 7.025395e-01 0.000000e+00 0.000000e+00 0.000000e+00
-5.815430e-01 7.013528e-01 0.000000e+00 0.000000e+00 0.000000e+00
-5.805664e-01 7.001652e-01 0.000000e+00 0.000000e+00 0.000000e+00
-5.795898e-01 6.989766e-01 0.000000e+00 0.000000e+00 0.000000e+00
-5.786133e-01 6.977872e-01 0.000000e+00 0.000000e+00 0.000000e+00
-5.776367e-01 6.965968e-01 0.000000e+00 0.000000e+00 0.000000e+00
-5.766602e-01 6.954054e-01 0.000000e+00 0.000000e+00 0.000000e+00
-5.756836e-01 6.942132e-01 0.000000e+00 0.000000e+00 0.000000e+00
-5.747070e-01 6.930201e-01 0.000000e+00 0.000000e+00 0.000000e+00
-5.737305e-01 6.918261e-01 0.000000e+00 0.000000e+00 0.000000e+00
-5.727539e-01 6.906313e-01 0.000000e+00 0.000000e+00 0.000000e+00
-5.717773e-01 6.894356e-01 0.000000e+00 0.000000e+00 0.000000e+00
-5.708008e-01 6.882391e-01 0.000000e+00 0.000000e+00 0.000000e+00
-5.698242e-01 6.870417e-01 0.000000e+00 0.000000e+00 0.000000e+00
-5.688477e-01 6.858435e-01 0.000000e+00 0.000000e+00 0.000000e+00
-5.678711e-01 6.846445e-01 0.000000e+00 0.000000e+00 0.000000e+00
-5.668945e-01 6.834447e-01 0.000000e+00 0.000000e+00 0.000000e+00
-5.659180e-01 6.822442e-01 0.000000e+00 0.000000e+00 0.000000e+00
-5.649414e-01 6.810428e-01 0.000000e+00 0.000000e+00 0.000000e+00
-5.639648e-01 6.798407e-01 0.000000e+00 0.000000e+00 0.000000e+00
-5.629883e-01 6.786378e-01 0.000000e+00 0.000000e+00 0.000000e+00
-5.620117e-01 6.774342e-01 0.000000e+00 0.000000e+00 0.000000e+00
-5.610352e-01 6.762299e-01 0.000000e+00 0.000000e+00 0.000000e+00
-5.600586e-01 6.750249e-01 0.000000e+00 0.000000e+00 0.000000e+00
-5.590820e-01 6.738191e-01 0.000000e+00 0.000000e+00 0.000000e+00