TITLE = "Nozzle Field Data"
variables="x""area""rho""u""p"
zone T="n=0"
I= 256
DATAPACKING=POINT
-9.960938e-001 9.999699e-001 1.732861e+000 5.077169e+001 2.977606e+005
-9.882813e-001 9.997290e-001 1.731561e+000 5.421219e+001 2.974477e+005
-9.804688e-001 9.992472e-001 1.730176e+000 5.765109e+001 2.971148e+005
-9.726563e-001 9.985250e-001 1.728708e+000 6.108829e+001 2.967619e+005
-9.648438e-001 9.975628e-001 1.727156e+000 6.452369e+001 2.963891e+005
-9.570313e-001 9.963611e-001 1.725522e+000 6.795719e+001 2.959964e+005
-9.492188e-001 9.949206e-001 1.723804e+000 7.138869e+001 2.955841e+005
-9.414063e-001 9.932422e-001 1.722005e+000 7.481809e+001 2.951522e+005
-9.335938e-001 9.913269e-001 1.720123e+000 7.824529e+001 2.947007e+005
-9.257813e-001 9.891760e-001 1.718160e+000 8.167019e+001 2.942300e+005
-9.179688e-001 9.867906e-001 1.716115e+000 8.509270e+001 2.937399e+005
-9.101563e-001 9.841722e-001 1.713990e+000 8.851271e+001 2.932308e+005
-9.023438e-001 9.813224e-001 1.711785e+000 9.193014e+001 2.927027e+005
-8.945313e-001 9.782429e-001 1.709499e+000 9.534487e+001 2.921557e+005
-8.867188e-001 9.749356e-001 1.707134e+000 9.875682e+001 2.915900e+005
-8.789063e-001 9.714024e-001 1.704690e+000 1.021659e+002 2.910058e+005
-8.710938e-001 9.676455e-001 1.702168e+000 1.055720e+002 2.904031e+005
-8.632813e-001 9.636672e-001 1.699568e+000 1.089750e+002 2.897822e+005
-8.554688e-001 9.594698e-001 1.696890e+000 1.123748e+002 2.891432e+005
-8.476563e-001 9.550558e-001 1.694135e+000 1.157714e+002 2.884863e+005
-8.398438e-001 9.504280e-001 1.691304e+000 1.191646e+002 2.878116e+005
-8.320313e-001 9.455891e-001 1.688397e+000 1.225544e+002 2.871193e+005
-8.242188e-001 9.405421e-001 1.685415e+000 1.259406e+002 2.864095e+005
-8.164063e-001 9.352899e-001 1.682358e+000 1.293232e+002 2.856825e+005
-8.085938e-001 9.298357e-001 1.679227e+000 1.327021e+002 2.849385e+005
-8.007813e-001 9.241829e-001 1.676023e+000 1.360771e+002 2.841776e+005
-7.929688e-001 9.183348e-001 1.672746e+000 1.394482e+002 2.834000e+005
-7.851563e-001 9.122949e-001 1.669396e+000 1.428153e+002 2.826059e+005
-7.773438e-001 9.060669e-001 1.665976e+000 1.461784e+002 2.817955e+005
-7.695313e-001 8.996546e-001 1.662484e+000 1.495372e+002 2.809690e+005
-7.617188e-001 8.930617e-001 1.658922e+000 1.528918e+002 2.801265e+005
-7.539063e-001 8.862923e-001 1.655291e+000 1.562420e+002 2.792684e+005
-7.460938e-001 8.793505e-001 1.651590e+000 1.595877e+002 2.783949e+005
-7.382813e-001 8.722404e-001 1.647822e+000 1.629289e+002 2.775060e+005
-7.304688e-001 8.649663e-001 1.643986e+000 1.662655e+002 2.766021e+005
-7.226563e-001 8.575326e-001 1.640084e+000 1.695974e+002 2.756833e+005
-7.148438e-001 8.499438e-001 1.636116e+000 1.729245e+002 2.747499e+005
-7.070313e-001 8.422044e-001 1.632082e+000 1.762467e+002 2.738021e+005
-6.992188e-001 8.343191e-001 1.627985e+000 1.795640e+002 2.728401e+005
-6.914063e-001 8.262927e-001 1.623823e+000 1.828762e+002 2.718642e+005
-6.835938e-001 8.181300e-001 1.619599e+000 1.861833e+002 2.708746e+005
-6.757813e-001 8.098359e-001 1.615312e+000 1.894852e+002 2.698714e+005
-6.679688e-001 8.014154e-001 1.610964e+000 1.927817e+002 2.688550e+005
-6.601563e-001 7.928735e-001 1.606556e+000 1.960730e+002 2.678255e+005
-6.523438e-001 7.842155e-001 1.602088e+000 1.993587e+002 2.667833e+005
-6.445313e-001 7.754465e-001 1.597560e+000 2.026390e+002 2.657285e+005
-6.367188e-001 7.665718e-001 1.592975e+000 2.059136e+002 2.646614e+005
-6.289063e-001 7.575968e-001 1.588333e+000 2.091825e+002 2.635822e+005
-6.210938e-001 7.485269e-001 1.583634e+000 2.124457e+002 2.624912e+005
-6.132813e-001 7.393675e-001 1.578880e+000 2.157030e+002 2.613885e+005
-6.054688e-001 7.301241e-001 1.574070e+000 2.189544e+002 2.602745e+005
-5.976563e-001 7.208024e-001 1.569207e+000 2.221999e+002 2.591495e+005
-5.898438e-001 7.114079e-001 1.564291e+000 2.254392e+002 2.580135e+005
-5.820313e-001 7.019463e-001 1.559323e+000 2.286725e+002 2.568670e+005
-5.742188e-001 6.924232e-001 1.554303e+000 2.318995e+002 2.557100e+005
-5.664063e-001 6.828446e-001 1.549232e+000 2.351203e+002 2.545430e+005
-5.585938e-001 6.732160e-001 1.544113e+000 2.383347e+002 2.533661e+005
-5.507813e-001 6.635433e-001 1.538944e+000 2.415426e+002 2.521795e+005
-5.429688e-001 6.538323e-001 1.533727e+000 2.447441e+002 2.509836e+005
-5.351563e-001 6.440889e-001 1.528464e+000 2.479391e+002 2.497786e+005
-5.273438e-001 6.343189e-001 1.523154e+000 2.511274e+002 2.485646e+005
-5.195313e-001 6.245283e-001 1.517799e+000 2.543090e+002 2.473421e+005
-5.117188e-001 6.147229e-001 1.512400e+000 2.574839e+002 2.461112e+005
-5.039063e-001 6.049086e-001 1.506958e+000 2.606519e+002 2.448721e+005
-4.960938e-001 5.950914e-001 1.501472e+000 2.638131e+002 2.436252e+005
-4.882813e-001 5.852771e-001 1.495945e+000 2.669673e+002 2.423706e+005
-4.804688e-001 5.754717e-001 1.490378e+000 2.701145e+002 2.411087e+005
-4.726563e-001 5.656811e-001 1.484770e+000 2.732546e+002 2.398396e+005
-4.648438e-001 5.559111e-001 1.479124e+000 2.763876e+002 2.385636e+005
-4.570313e-001 5.461677e-001 1.473439e+000 2.795134e+002 2.372810e+005
-4.492188e-001 5.364567e-001 1.467717e+000 2.826320e+002 2.359920e+005
-4.414063e-001 5.267840e-001 1.461959e+000 2.857432e+002 2.346968e+005
-4.335938e-001 5.171554e-001 1.456165e+000 2.888471e+002 2.333957e+005
-4.257813e-001 5.075768e-001 1.450337e+000 2.919436e+002 2.320889e+005
-4.179688e-001 4.980537e-001 1.444475e+000 2.950326e+002 2.307768e+005
-4.101563e-001 4.885921e-001 1.438581e+000 2.981140e+002 2.294594e+005
-4.023438e-001 4.791976e-001 1.432654e+000 3.011879e+002 2.281371e+005
-3.945313e-001 4.698759e-001 1.426697e+000 3.042541e+002 2.268100e+005
-3.867188e-001 4.606325e-001 1.420709e+000 3.073126e+002 2.254785e+005
-3.789063e-001 4.514731e-001 1.414692e+000 3.103634e+002 2.241428e+005
-3.710938e-001 4.424032e-001 1.408647e+000 3.134064e+002 2.228030e+005
-3.632813e-001 4.334282e-001 1.402575e+000 3.164415e+002 2.214595e+005
-3.554688e-001 4.245535e-001 1.396475e+000 3.194688e+002 2.201124e+005
-3.476563e-001 4.157845e-001 1.390350e+000 3.224881e+002 2.187620e+005
-3.398438e-001 4.071265e-001 1.384200e+000 3.254994e+002 2.174085e+005
-3.320313e-001 3.985846e-001 1.378027e+000 3.285027e+002 2.160521e+005
-3.242188e-001 3.901641e-001 1.371829e+000 3.314979e+002 2.146931e+005
-3.164063e-001 3.818700e-001 1.365610e+000 3.344850e+002 2.133317e+005
-3.085938e-001 3.737073e-001 1.359369e+000 3.374640e+002 2.119680e+005
-3.007813e-001 3.656809e-001 1.353108e+000 3.404347e+002 2.106024e+005
-2.929688e-001 3.577956e-001 1.346827e+000 3.433972e+002 2.092350e+005
-2.851563e-001 3.500562e-001 1.340527e+000 3.463513e+002 2.078660e+005
-2.773438e-001 3.424674e-001 1.334208e+000 3.492972e+002 2.064957e+005
-2.695313e-001 3.350337e-001 1.327873e+000 3.522347e+002 2.051243e+005
-2.617188e-001 3.277596e-001 1.321521e+000 3.551638e+002 2.037519e+005
-2.539063e-001 3.206495e-001 1.315153e+000 3.580844e+002 2.023787e+005
-2.460938e-001 3.137077e-001 1.308771e+000 3.609965e+002 2.010050e+005
-2.382813e-001 3.069383e-001 1.302374e+000 3.639002e+002 1.996310e+005
-2.304688e-001 3.003454e-001 1.295965e+000 3.667952e+002 1.982569e+005
-2.226563e-001 2.939331e-001 1.289542e+000 3.696817e+002 1.968828e+005
-2.148438e-001 2.877051e-001 1.283109e+000 3.725596e+002 1.955090e+005
-2.070313e-001 2.816652e-001 1.276664e+000 3.754288e+002 1.941356e+005
-1.992188e-001 2.758171e-001 1.270209e+000 3.782893e+002 1.927628e+005
-1.914063e-001 2.701643e-001 1.263745e+000 3.811412e+002 1.913908e+005
-1.835938e-001 2.647101e-001 1.257272e+000 3.839842e+002 1.900198e+005
-1.757813e-001 2.594579e-001 1.250791e+000 3.868185e+002 1.886500e+005
-1.679688e-001 2.544109e-001 1.244304e+000 3.896440e+002 1.872815e+005
-1.601563e-001 2.495720e-001 1.237810e+000 3.924607e+002 1.859145e+005
-1.523438e-001 2.449442e-001 1.231310e+000 3.952685e+002 1.845492e+005
-1.445313e-001 2.405302e-001 1.224805e+000 3.980674e+002 1.831858e+005
-1.367188e-001 2.363328e-001 1.218296e+000 4.008574e+002 1.818244e+005
-1.289063e-001 2.323545e-001 1.211784e+000 4.036385e+002 1.804651e+005
-1.210938e-001 2.285976e-001 1.205269e+000 4.064107e+002 1.791082e+005
-1.132813e-001 2.250644e-001 1.198752e+000 4.091738e+002 1.777538e+005
-1.054688e-001 2.217571e-001 1.192233e+000 4.119280e+002 1.764020e+005
-9.765625e-002 2.186776e-001 1.185714e+000 4.146731e+002 1.750531e+005
-8.984375e-002 2.158278e-001 1.179194e+000 4.174092e+002 1.737070e+005
-8.203125e-002 2.132094e-001 1.172675e+000 4.201362e+002 1.723641e+005
-7.421875e-002 2.108240e-001 1.166158e+000 4.228542e+002 1.710244e+005
-6.640625e-002 2.086731e-001 1.159642e+000 4.255630e+002 1.696881e+005
-5.859375e-002 2.067578e-001 1.153129e+000 4.282628e+002 1.683553e+005
-5.078125e-002 2.050794e-001 1.146619e+000 4.309534e+002 1.670262e+005
-4.296875e-002 2.036389e-001 1.140112e+000 4.336348e+002 1.657008e+005
-3.515625e-002 2.024372e-001 1.133610e+000 4.363071e+002 1.643794e+005
-2.734375e-002 2.014750e-001 1.127114e+000 4.389702e+002 1.630619e+005
-1.953125e-002 2.007528e-001 1.120622e+000 4.416242e+002 1.617487e+005
-1.171875e-002 2.002710e-001 1.114137e+000 4.442689e+002 1.604397e+005
-3.906250e-003 2.000301e-001 1.107658e+000 4.469044e+002 1.591351e+005
3.906250e-003 2.000301e-001 1.101187e+000 4.495307e+002 1.578351e+005
1.171875e-002 2.002710e-001 1.094724e+000 4.521477e+002 1.565396e+005
1.953125e-002 2.007528e-001 1.088269e+000 4.547555e+002 1.552489e+005
2.734375e-002 2.014750e-001 1.081823e+000 4.573541e+002 1.539631e+005
3.515625e-002 2.024372e-001 1.075386e+000 4.599433e+002 1.526822e+005
4.296875e-002 2.036389e-001 1.068960e+000 4.625233e+002 1.514063e+005
5.078125e-002 2.050794e-001 1.062544e+000 4.650940e+002 1.501356e+005
5.859375e-002 2.067578e-001 1.056139e+000 4.676555e+002 1.488701e+005
6.640625e-002 2.086731e-001 1.049746e+000 4.702076e+002 1.476100e+005
7.421875e-002 2.108240e-001 1.043365e+000 4.727504e+002 1.463553e+005
8.203125e-002 2.132094e-001 1.036996e+000 4.752839e+002 1.451061e+005
8.984375e-002 2.158278e-001 1.030640e+000 4.778082e+002 1.438625e+005
9.765625e-002 2.186776e-001 1.024298e+000 4.803231e+002 1.426246e+005
1.054688e-001 2.217571e-001 1.017969e+000 4.828286e+002 1.413925e+005
1.132813e-001 2.250644e-001 1.011655e+000 4.853249e+002 1.401662e+005
1.210938e-001 2.285976e-001 1.005356e+000 4.878119e+002 1.389459e+005
1.289063e-001 2.323545e-001 9.990717e-001 4.902895e+002 1.377315e+005
1.367188e-001 2.363328e-001 9.928033e-001 4.927578e+002 1.365232e+005
1.445313e-001 2.405302e-001 9.865510e-001 4.952168e+002 1.353210e+005
1.523438e-001 2.449442e-001 9.803152e-001 4.976664e+002 1.341251e+005
1.601563e-001 2.495720e-001 9.740962e-001 5.001068e+002 1.329354e+005
1.679688e-001 2.544109e-001 9.678945e-001 5.025378e+002 1.317520e+005
1.757813e-001 2.594579e-001 9.617105e-001 5.049595e+002 1.305750e+005
1.835938e-001 2.647101e-001 9.555444e-001 5.073719e+002 1.294044e+005
1.914063e-001 2.701643e-001 9.493968e-001 5.097750e+002 1.282404e+005
1.992188e-001 2.758171e-001 9.432679e-001 5.121688e+002 1.270829e+005
2.070313e-001 2.816652e-001 9.371581e-001 5.145533e+002 1.259319e+005
2.148438e-001 2.877051e-001 9.310677e-001 5.169285e+002 1.247877e+005
2.226563e-001 2.939331e-001 9.249971e-001 5.192944e+002 1.236501e+005
2.304688e-001 3.003454e-001 9.189466e-001 5.216510e+002 1.225192e+005
2.382813e-001 3.069383e-001 9.129165e-001 5.239984e+002 1.213952e+005
2.460938e-001 3.137077e-001 9.069071e-001 5.263365e+002 1.202779e+005
2.539063e-001 3.206495e-001 9.009188e-001 5.286653e+002 1.191675e+005
2.617188e-001 3.277596e-001 8.949517e-001 5.309848e+002 1.180640e+005
2.695313e-001 3.350337e-001 8.890063e-001 5.332952e+002 1.169674e+005
2.773438e-001 3.424674e-001 8.830827e-001 5.355962e+002 1.158777e+005
2.851563e-001 3.500562e-001 8.771813e-001 5.378881e+002 1.147950e+005
2.929688e-001 3.577956e-001 8.713023e-001 5.401707e+002 1.137193e+005
3.007813e-001 3.656809e-001 8.654460e-001 5.424442e+002 1.126507e+005
3.085938e-001 3.737073e-001 8.596126e-001 5.447084e+002 1.115891e+005
3.164063e-001 3.818700e-001 8.538023e-001 5.469635e+002 1.105346e+005
3.242188e-001 3.901641e-001 8.480155e-001 5.492094e+002 1.094872e+005
3.320313e-001 3.985846e-001 8.422523e-001 5.514461e+002 1.084469e+005
3.398438e-001 4.071265e-001 8.365129e-001 5.536737e+002 1.074137e+005
3.476563e-001 4.157845e-001 8.307976e-001 5.558922e+002 1.063877e+005
3.554688e-001 4.245535e-001 8.251066e-001 5.581015e+002 1.053688e+005
3.632813e-001 4.334282e-001 8.194400e-001 5.603018e+002 1.043571e+005
3.710938e-001 4.424032e-001 8.137981e-001 5.624929e+002 1.033526e+005
3.789063e-001 4.514731e-001 8.081810e-001 5.646750e+002 1.023552e+005
3.867188e-001 4.606325e-001 8.025890e-001 5.668480e+002 1.013651e+005
3.945313e-001 4.698759e-001 7.970221e-001 5.690119e+002 1.003821e+005
4.023438e-001 4.791976e-001 7.914807e-001 5.711669e+002 9.940640e+004
4.101563e-001 4.885921e-001 7.859647e-001 5.733128e+002 9.843786e+004
4.179688e-001 4.980537e-001 7.804745e-001 5.754497e+002 9.747653e+004
4.257813e-001 5.075768e-001 7.750100e-001 5.775777e+002 9.652241e+004
4.335938e-001 5.171554e-001 7.695716e-001 5.796967e+002 9.557549e+004
4.414063e-001 5.267840e-001 7.641592e-001 5.818067e+002 9.463577e+004
4.492188e-001 5.364567e-001 7.587731e-001 5.839078e+002 9.370324e+004
4.570313e-001 5.461677e-001 7.534134e-001 5.860000e+002 9.277790e+004
4.648438e-001 5.559111e-001 7.480801e-001 5.880833e+002 9.185975e+004
4.726563e-001 5.656811e-001 7.427734e-001 5.901578e+002 9.094876e+004
4.804688e-001 5.754717e-001 7.374934e-001 5.922234e+002 9.004494e+004
4.882813e-001 5.852771e-001 7.322403e-001 5.942801e+002 8.914828e+004
4.960938e-001 5.950914e-001 7.270140e-001 5.963281e+002 8.825875e+004
5.039063e-001 6.049086e-001 7.218147e-001 5.983673e+002 8.737635e+004
5.117188e-001 6.147229e-001 7.166425e-001 6.003976e+002 8.650107e+004
5.195313e-001 6.245283e-001 7.114974e-001 6.024193e+002 8.563288e+004
5.273438e-001 6.343189e-001 7.063796e-001 6.044322e+002 8.477178e+004
5.351563e-001 6.440889e-001 7.012890e-001 6.064364e+002 8.391774e+004
5.429688e-001 6.538323e-001 6.962259e-001 6.084319e+002 8.307075e+004
5.507813e-001 6.635433e-001 6.911901e-001 6.104188e+002 8.223078e+004
5.585938e-001 6.732160e-001 6.861818e-001 6.123970e+002 8.139782e+004
5.664063e-001 6.828446e-001 6.812011e-001 6.143666e+002 8.057185e+004
5.742188e-001 6.924232e-001 6.762479e-001 6.163275e+002 7.975284e+004
5.820313e-001 7.019463e-001 6.713223e-001 6.182800e+002 7.894078e+004
5.898438e-001 7.114079e-001 6.664244e-001 6.202238e+002 7.813563e+004
5.976563e-001 7.208024e-001 6.615541e-001 6.221592e+002 7.733738e+004
6.054688e-001 7.301241e-001 6.567116e-001 6.240860e+002 7.654599e+004
6.132813e-001 7.393675e-001 6.518968e-001 6.260043e+002 7.576145e+004
6.210938e-001 7.485269e-001 6.471097e-001 6.279142e+002 7.498372e+004
6.289063e-001 7.575968e-001 6.423504e-001 6.298157e+002 7.421278e+004
6.367188e-001 7.665718e-001 6.376189e-001 6.317087e+002 7.344860e+004
6.445313e-001 7.754465e-001 6.329151e-001 6.335934e+002 7.269116e+004
6.523438e-001 7.842155e-001 6.282392e-001 6.354697e+002 7.194041e+004
6.601563e-001 7.928735e-001 6.235910e-001 6.373376e+002 7.119634e+004
6.679688e-001 8.014154e-001 6.189706e-001 6.391973e+002 7.045891e+004
6.757813e-001 8.098359e-001 6.143779e-001 6.410487e+002 6.972809e+004
6.835938e-001 8.181300e-001 6.098131e-001 6.428918e+002 6.900385e+004
6.914063e-001 8.262927e-001 6.052759e-001 6.447266e+002 6.828615e+004
6.992188e-001 8.343191e-001 6.007665e-001 6.465533e+002 6.757497e+004
7.070313e-001 8.422044e-001 5.962847e-001 6.483718e+002 6.687027e+004
7.148438e-001 8.499438e-001 5.918307e-001 6.501821e+002 6.617202e+004
7.226563e-001 8.575326e-001 5.874043e-001 6.519843e+002 6.548017e+004
7.304688e-001 8.649663e-001 5.830054e-001 6.537784e+002 6.479471e+004
7.382813e-001 8.722404e-001 5.786342e-001 6.555644e+002 6.411559e+004
7.460938e-001 8.793505e-001 5.742905e-001 6.573424e+002 6.344277e+004
7.539063e-001 8.862923e-001 5.699743e-001 6.591123e+002 6.277623e+004
7.617188e-001 8.930617e-001 5.656855e-001 6.608742e+002 6.211592e+004
7.695313e-001 8.996546e-001 5.614241e-001 6.626282e+002 6.146181e+004
7.773438e-001 9.060669e-001 5.571901e-001 6.643742e+002 6.081387e+004
7.851563e-001 9.122949e-001 5.529833e-001 6.661123e+002 6.017204e+004
7.929688e-001 9.183348e-001 5.488038e-001 6.678425e+002 5.953631e+004
8.007813e-001 9.241829e-001 5.446515e-001 6.695649e+002 5.890662e+004
8.085938e-001 9.298357e-001 5.405263e-001 6.712794e+002 5.828294e+004
8.164063e-001 9.352899e-001 5.364282e-001 6.729861e+002 5.766524e+004
8.242188e-001 9.405421e-001 5.323570e-001 6.746850e+002 5.705347e+004
8.320313e-001 9.455891e-001 5.283127e-001 6.763762e+002 5.644759e+004
8.398438e-001 9.504280e-001 5.242954e-001 6.780597e+002 5.584757e+004
8.476563e-001 9.550558e-001 5.203047e-001 6.797354e+002 5.525337e+004
8.554688e-001 9.594698e-001 5.163408e-001 6.814035e+002 5.466495e+004
8.632813e-001 9.636672e-001 5.124035e-001 6.830639e+002 5.408226e+004
8.710938e-001 9.676455e-001 5.084928e-001 6.847168e+002 5.350527e+004
8.789063e-001 9.714024e-001 5.046085e-001 6.863620e+002 5.293395e+004
8.867188e-001 9.749356e-001 5.007506e-001 6.879997e+002 5.236823e+004
8.945313e-001 9.782429e-001 4.969189e-001 6.896299e+002 5.180810e+004
9.023438e-001 9.813224e-001 4.931135e-001 6.912526e+002 5.125351e+004
9.101563e-001 9.841722e-001 4.893342e-001 6.928678e+002 5.070441e+004
9.179688e-001 9.867906e-001 4.855810e-001 6.944755e+002 5.016077e+004
9.257813e-001 9.891760e-001 4.818536e-001 6.960759e+002 4.962255e+004
9.335938e-001 9.913269e-001 4.781521e-001 6.976688e+002 4.908971e+004
9.414063e-001 9.932422e-001 4.744764e-001 6.992544e+002 4.856220e+004
9.492188e-001 9.949206e-001 4.708263e-001 7.008327e+002 4.803998e+004
9.570313e-001 9.963611e-001 4.672017e-001 7.024037e+002 4.752302e+004
9.648438e-001 9.975628e-001 4.636026e-001 7.039674e+002 4.701128e+004
9.726563e-001 9.985250e-001 4.600288e-001 7.055239e+002 4.650471e+004
9.804688e-001 9.992472e-001 4.564803e-001 7.070731e+002 4.600327e+004
9.882813e-001 9.997290e-001 4.529569e-001 7.086152e+002 4.550693e+004
9.960938e-001 9.999699e-001 4.494585e-001 7.101501e+002 4.501564e+004
zone T="n=51"
I= 256
DATAPACKING=POINT
-9.960938e-001 9.999699e-001 1.730675e+000 5.652360e+001 2.972340e+005
-9.882813e-001 9.997290e-001 1.730711e+000 5.653635e+001 2.972418e+005
-9.804688e-001 9.992472e-001 1.730742e+000 5.656292e+001 2.972483e+005
-9.726563e-001 9.985250e-001 1.730767e+000 5.660332e+001 2.972534e+005
-9.648438e-001 9.975628e-001 1.730787e+000 5.665760e+001 2.972572e+005
-9.570313e-001 9.963611e-001 1.730800e+000 5.672580e+001 2.972596e+005
-9.492188e-001 9.949206e-001 1.730808e+000 5.680798e+001 2.972606e+005
-9.414063e-001 9.932422e-001 1.730810e+000 5.690421e+001 2.972603e+005
-9.335938e-001 9.913269e-001 1.730807e+000 5.701459e+001 2.972585e+005
-9.257813e-001 9.891760e-001 1.730797e+000 5.713920e+001 2.972554e+005
-9.179688e-001 9.867906e-001 1.730782e+000 5.727816e+001 2.972509e+005
-9.101563e-001 9.841722e-001 1.730760e+000 5.743158e+001 2.972449e+005
-9.023438e-001 9.813224e-001 1.730733e+000 5.759961e+001 2.972374e+005
-8.945313e-001 9.782429e-001 1.730699e+000 5.778240e+001 2.972285e+005
-8.867188e-001 9.749356e-001 1.730659e+000 5.798010e+001 2.972180e+005
-8.789063e-001 9.714024e-001 1.730612e+000 5.819290e+001 2.972061e+005
-8.710938e-001 9.676455e-001 1.730559e+000 5.842098e+001 2.971925e+005
-8.632813e-001 9.636672e-001 1.730499e+000 5.866455e+001 2.971773e+005
-8.554688e-001 9.594698e-001 1.730432e+000 5.892383e+001 2.971605e+005
-8.476563e-001 9.550558e-001 1.730358e+000 5.919905e+001 2.971420e+005
-8.398438e-001 9.504280e-001 1.730276e+000 5.949047e+001 2.971218e+005
-8.320313e-001 9.455891e-001 1.730187e+000 5.979836e+001 2.970998e+005
-8.242188e-001 9.405421e-001 1.730090e+000 6.012299e+001 2.970759e+005
-8.164063e-001 9.352899e-001 1.729986e+000 6.046467e+001 2.970502e+005
-8.085938e-001 9.298357e-001 1.729873e+000 6.082372e+001 2.970225e+005
-8.007813e-001 9.241829e-001 1.729751e+000 6.120046e+001 2.969928e+005
-7.929688e-001 9.183348e-001 1.729621e+000 6.159525e+001 2.969611e+005
-7.851563e-001 9.122949e-001 1.729482e+000 6.200848e+001 2.969272e+005
-7.773438e-001 9.060669e-001 1.729333e+000 6.244052e+001 2.968910e+005
-7.695313e-001 8.996546e-001 1.729174e+000 6.289179e+001 2.968526e+005
-7.617188e-001 8.930617e-001 1.729006e+000 6.336273e+001 2.968117e+005
-7.539063e-001 8.862923e-001 1.728826e+000 6.385380e+001 2.967684e+005
-7.460938e-001 8.793505e-001 1.728636e+000 6.436546e+001 2.967225e+005
-7.382813e-001 8.722404e-001 1.728434e+000 6.489823e+001 2.966738e+005
-7.304688e-001 8.649663e-001 1.728221e+000 6.545262e+001 2.966224e+005
-7.226563e-001 8.575326e-001 1.727994e+000 6.602920e+001 2.965681e+005
-7.148438e-001 8.499438e-001 1.727755e+000 6.662853e+001 2.965106e+005
-7.070313e-001 8.422044e-001 1.727503e+000 6.725123e+001 2.964500e+005
-6.992188e-001 8.343191e-001 1.727236e+000 6.789793e+001 2.963861e+005
-6.914063e-001 8.262927e-001 1.726955e+000 6.856928e+001 2.963187e+005
-6.835938e-001 8.181300e-001 1.726657e+000 6.926599e+001 2.962476e+005
-6.757813e-001 8.098359e-001 1.726344e+000 6.998877e+001 2.961727e+005
-6.679688e-001 8.014154e-001 1.726014e+000 7.073839e+001 2.960938e+005
-6.601563e-001 7.928735e-001 1.725666e+000 7.151564e+001 2.960108e+005
-6.523438e-001 7.842155e-001 1.725299e+000 7.232134e+001 2.959233e+005
-6.445313e-001 7.754465e-001 1.724912e+000 7.315636e+001 2.958311e+005
-6.367188e-001 7.665718e-001 1.724505e+000 7.402160e+001 2.957342e+005
-6.289063e-001 7.575968e-001 1.724076e+000 7.491802e+001 2.956321e+005
-6.210938e-001 7.485269e-001 1.723624e+000 7.584658e+001 2.955246e+005
-6.132813e-001 7.393675e-001 1.723148e+000 7.680834e+001 2.954115e+005
-6.054688e-001 7.301241e-001 1.722646e+000 7.780435e+001 2.952924e+005
-5.976563e-001 7.208024e-001 1.722118e+000 7.883574e+001 2.951671e+005
-5.898438e-001 7.114079e-001 1.721562e+000 7.990369e+001 2.950351e+005
-5.820313e-001 7.019463e-001 1.720976e+000 8.100942e+001 2.948961e+005
-5.742188e-001 6.924232e-001 1.720358e+000 8.215421e+001 2.947498e+005
-5.664063e-001 6.828446e-001 1.719708e+000 8.333938e+001 2.945957e+005
-5.585938e-001 6.732160e-001 1.719022e+000 8.456634e+001 2.944334e+005
-5.507813e-001 6.635433e-001 1.718300e+000 8.583652e+001 2.942624e+005
-5.429688e-001 6.538323e-001 1.717538e+000 8.715145e+001 2.940822e+005
-5.351563e-001 6.440889e-001 1.716735e+000 8.851271e+001 2.938923e+005
-5.273438e-001 6.343189e-001 1.715888e+000 8.992193e+001 2.936922e+005
-5.195313e-001 6.245283e-001 1.714994e+000 9.138085e+001 2.934811e+005
-5.117188e-001 6.147229e-001 1.714051e+000 9.289123e+001 2.932586e+005
-5.039063e-001 6.049086e-001 1.713057e+000 9.445497e+001 2.930238e+005
-4.960938e-001 5.950914e-001 1.712007e+000 9.607398e+001 2.927761e+005
-4.882813e-001 5.852771e-001 1.710898e+000 9.775031e+001 2.925146e+005
-4.804688e-001 5.754717e-001 1.709727e+000 9.948605e+001 2.922386e+005
-4.726563e-001 5.656811e-001 1.708490e+000 1.012834e+002 2.919471e+005
-4.648438e-001 5.559111e-001 1.707183e+000 1.031447e+002 2.916393e+005
-4.570313e-001 5.461677e-001 1.705802e+000 1.050722e+002 2.913140e+005
-4.492188e-001 5.364567e-001 1.704341e+000 1.070685e+002 2.909702e+005
-4.414063e-001 5.267840e-001 1.702796e+000 1.091361e+002 2.906068e+005
-4.335938e-001 5.171554e-001 1.701162e+000 1.112777e+002 2.902225e+005
-4.257813e-001 5.075768e-001 1.699433e+000 1.134960e+002 2.898160e+005
-4.179688e-001 4.980537e-001 1.697603e+000 1.157940e+002 2.893860e+005
-4.101563e-001 4.885921e-001 1.695665e+000 1.181745e+002 2.889308e+005
-4.023438e-001 4.791976e-001 1.693612e+000 1.206408e+002 2.884490e+005
-3.945313e-001 4.698759e-001 1.691438e+000 1.231960e+002 2.879388e+005
-3.867188e-001 4.606325e-001 1.689135e+000 1.258434e+002 2.873984e+005
-3.789063e-001 4.514731e-001 1.686693e+000 1.285864e+002 2.868260e+005
-3.710938e-001 4.424032e-001 1.684105e+000 1.314286e+002 2.862194e+005
-3.632813e-001 4.334282e-001 1.681360e+000 1.343736e+002 2.855766e+005
-3.554688e-001 4.245535e-001 1.678449e+000 1.374251e+002 2.848951e+005
-3.476563e-001 4.157845e-001 1.675360e+000 1.405870e+002 2.841727e+005
-3.398438e-001 4.071265e-001 1.672084e+000 1.438632e+002 2.834066e+005
-3.320313e-001 3.985846e-001 1.668606e+000 1.472579e+002 2.825941e+005
-3.242188e-001 3.901641e-001 1.664916e+000 1.507751e+002 2.817324e+005
-3.164063e-001 3.818700e-001 1.660999e+000 1.544191e+002 2.808183e+005
-3.085938e-001 3.737073e-001 1.656840e+000 1.581941e+002 2.798488e+005
-3.007813e-001 3.656809e-001 1.652425e+000 1.621046e+002 2.788203e+005
-2.929688e-001 3.577956e-001 1.647738e+000 1.661550e+002 2.777293e+005
-2.851563e-001 3.500562e-001 1.642762e+000 1.703496e+002 2.765722e+005
-2.773438e-001 3.424674e-001 1.637479e+000 1.746931e+002 2.753449e+005
-2.695313e-001 3.350337e-001 1.631872e+000 1.791900e+002 2.740435e+005
-2.617188e-001 3.277596e-001 1.625920e+000 1.838446e+002 2.726638e+005
-2.539063e-001 3.206495e-001 1.619604e+000 1.886614e+002 2.712015e+005
-2.460938e-001 3.137077e-001 1.612902e+000 1.936448e+002 2.696519e+005
-2.382813e-001 3.069383e-001 1.605794e+000 1.987991e+002 2.680106e+005
-2.304688e-001 3.003454e-001 1.598257e+000 2.041284e+002 2.662729e+005
-2.226563e-001 2.939331e-001 1.590269e+000 2.096366e+002 2.644341e+005
-2.148438e-001 2.877051e-001 1.581806e+000 2.153277e+002 2.624892e+005
-2.070313e-001 2.816652e-001 1.572844e+000 2.212050e+002 2.604337e+005
-1.992188e-001 2.758171e-001 1.563361e+000 2.272718e+002 2.582627e+005
-1.914063e-001 2.701643e-001 1.553332e+000 2.335310e+002 2.559716e+005
-1.835938e-001 2.647101e-001 1.542734e+000 2.399852e+002 2.535560e+005
-1.757813e-001 2.594579e-001 1.531543e+000 2.466364e+002 2.510116e+005
-1.679688e-001 2.544109e-001 1.519738e+000 2.534861e+002 2.483343e+005
-1.601563e-001 2.495720e-001 1.507298e+000 2.605354e+002 2.455207e+005
-1.523438e-001 2.449442e-001 1.494201e+000 2.677846e+002 2.425675e+005
-1.445313e-001 2.405302e-001 1.480430e+000 2.752336e+002 2.394721e+005
-1.367188e-001 2.363328e-001 1.465970e+000 2.828814e+002 2.362325e+005
-1.289063e-001 2.323545e-001 1.450805e+000 2.907262e+002 2.328472e+005
-1.210938e-001 2.285976e-001 1.434924e+000 2.987654e+002 2.293159e+005
-1.132813e-001 2.250644e-001 1.418321e+000 3.069957e+002 2.256387e+005
-1.054688e-001 2.217571e-001 1.400991e+000 3.154126e+002 2.218171e+005
-9.765625e-002 2.186776e-001 1.382934e+000 3.240110e+002 2.178534e+005
-8.984375e-002 2.158278e-001 1.364154e+000 3.327847e+002 2.137509e+005
-8.203125e-002 2.132094e-001 1.344659e+000 3.417264e+002 2.095142e+005
-7.421875e-002 2.108240e-001 1.324465e+000 3.508281e+002 2.051492e+005
-6.640625e-002 2.086731e-001 1.303589e+000 3.600806e+002 2.006626e+005
-5.859375e-002 2.067578e-001 1.282056e+000 3.694740e+002 1.960627e+005
-5.078125e-002 2.050794e-001 1.259896e+000 3.789973e+002 1.913587e+005
-4.296875e-002 2.036389e-001 1.237142e+000 3.886388e+002 1.865609e+005
-3.515625e-002 2.024372e-001 1.213836e+000 3.983859e+002 1.816808e+005
-2.734375e-002 2.014750e-001 1.190021e+000 4.082253e+002 1.767305e+005
-1.953125e-002 2.007528e-001 1.165747e+000 4.181433e+002 1.717232e+005
-1.171875e-002 2.002710e-001 1.141066e+000 4.281255e+002 1.666725e+005
-3.906250e-003 2.000301e-001 1.116037e+000 4.381570e+002 1.615927e+005
3.906250e-003 2.000301e-001 1.066743e+000 4.582128e+002 1.516972e+005
1.171875e-002 2.002710e-001 1.042158e+000 4.681766e+002 1.468269e+005
1.953125e-002 2.007528e-001 1.017426e+000 4.781216e+002 1.419747e+005
2.734375e-002 2.014750e-001 9.926061e-001 4.880328e+002 1.371533e+005
3.515625e-002 2.024372e-001 9.677568e-001 4.978961e+002 1.323753e+005
4.296875e-002 2.036389e-001 9.429371e-001 5.076973e+002 1.276527e+005
5.078125e-002 2.050794e-001 9.182046e-001 5.174233e+002 1.229966e+005
5.859375e-002 2.067578e-001 8.936147e-001 5.270614e+002 1.184176e+005
6.640625e-002 2.086731e-001 8.692206e-001 5.365996e+002 1.139252e+005
7.421875e-002 2.108240e-001 8.450727e-001 5.460270e+002 1.095281e+005
8.203125e-002 2.132094e-001 8.212183e-001 5.553332e+002 1.052339e+005
8.984375e-002 2.158278e-001 7.977009e-001 5.645090e+002 1.010494e+005
9.765625e-002 2.186776e-001 7.745605e-001 5.735457e+002 9.698007e+004
1.054688e-001 2.217571e-001 7.518329e-001 5.824360e+002 9.303063e+004
1.132813e-001 2.250644e-001 7.295502e-001 5.911732e+002 8.920472e+004
1.210938e-001 2.285976e-001 7.077402e-001 5.997514e+002 8.550503e+004
1.289063e-001 2.323545e-001 6.864268e-001 6.081659e+002 8.193338e+004
1.367188e-001 2.363328e-001 6.656300e-001 6.164126e+002 7.849074e+004
1.445313e-001 2.405302e-001 6.453659e-001 6.244883e+002 7.517731e+004
1.523438e-001 2.449442e-001 6.256470e-001 6.323904e+002 7.199259e+004
1.601563e-001 2.495720e-001 6.064826e-001 6.401173e+002 6.893547e+004
1.679688e-001 2.544109e-001 5.878786e-001 6.476677e+002 6.600426e+004
1.757813e-001 2.594579e-001 5.698380e-001 6.550413e+002 6.319679e+004
1.835938e-001 2.647101e-001 5.523611e-001 6.622382e+002 6.051048e+004
1.914063e-001 2.701643e-001 5.354460e-001 6.692588e+002 5.794241e+004
1.992188e-001 2.758171e-001 5.190885e-001 6.761042e+002 5.548936e+004
2.070313e-001 2.816652e-001 5.032822e-001 6.827760e+002 5.314788e+004
2.148438e-001 2.877051e-001 4.880195e-001 6.892759e+002 5.091435e+004
2.226563e-001 2.939331e-001 4.732911e-001 6.956061e+002 4.878502e+004
2.304688e-001 3.003454e-001 4.590865e-001 7.017690e+002 4.675606e+004
2.382813e-001 3.069383e-001 4.453942e-001 7.077674e+002 4.482359e+004
2.460938e-001 3.137077e-001 4.322017e-001 7.136040e+002 4.298371e+004
2.539063e-001 3.206495e-001 4.194962e-001 7.192819e+002 4.123255e+004
2.617188e-001 3.277596e-001 4.072641e-001 7.248043e+002 3.956626e+004
2.695313e-001 3.350337e-001 3.954914e-001 7.301744e+002 3.798108e+004
2.773438e-001 3.424674e-001 3.841640e-001 7.353958e+002 3.647329e+004
2.851563e-001 3.500562e-001 3.732677e-001 7.404717e+002 3.503930e+004
2.929688e-001 3.577956e-001 3.627880e-001 7.454057e+002 3.367560e+004